<?xml version="1.0" encoding="UTF-8"?>

<!-- generated on 2021-11-10 12:49:37 by Eclipse SUMO GUI Version 1.10.0
<configuration xmlns:xsi="http://www.w3.org/2001/XMLSchema-instance" xsi:noNamespaceSchemaLocation="http://sumo.dlr.de/xsd/sumoConfiguration.xsd">

    <input>
        <net-file value="intersection.net.xml"/>
        <route-files value="live.rou.xml"/>
    </input>

    <output>
        <tripinfo-output value="timed-tripinfo.xml"/>
        <tripinfo-output.write-unfinished value="true"/>
    </output>

    <time>
        <begin value="0"/>
    </time>

    <processing>
        <time-to-teleport value="-1"/>
        <waiting-time-memory value="1000"/>
    </processing>

    <report>
        <verbose value="true"/>
        <message-log value="timed-statistic.xml"/>
        <error-log value="error.log.xml"/>
        <duration-log.statistics value="true"/>
        <no-step-log value="true"/>
    </report>

    <traci_server>
        <remote-port value="61082"/>
    </traci_server>

</configuration>
-->

<tripinfos xmlns:xsi="http://www.w3.org/2001/XMLSchema-instance" xsi:noNamespaceSchemaLocation="http://sumo.dlr.de/xsd/tripinfo_file.xsd">
    <tripinfo id="veh_3" depart="1.00" departLane="south_up_0" departPos="4.10" departSpeed="0.00" departDelay="0.00" arrival="19.00" arrivalLane="east_right_0" arrivalPos="91.95" arrivalSpeed="13.14" duration="18.00" routeLength="184.80" waitingTime="0.00" waitingCount="0" stopTime="0.00" timeLoss="4.36" rerouteNo="0" devices="tripinfo_veh_3" vType="2" speedFactor="1.08" vaporized=""/>
    <tripinfo id="veh_1" depart="1.00" departLane="north_down_0" departPos="3.10" departSpeed="0.00" departDelay="0.00" arrival="23.00" arrivalLane="east_right_1" arrivalPos="91.95" arrivalSpeed="12.90" duration="22.00" routeLength="196.44" waitingTime="0.00" waitingCount="0" stopTime="0.00" timeLoss="5.97" rerouteNo="0" devices="tripinfo_veh_1" vType="1" speedFactor="0.94" vaporized=""/>
    <tripinfo id="veh_5" depart="4.00" departLane="north_down_0" departPos="5.10" departSpeed="0.00" departDelay="2.00" arrival="24.00" arrivalLane="west_left_0" arrivalPos="91.95" arrivalSpeed="10.76" duration="20.00" routeLength="183.80" waitingTime="0.00" waitingCount="0" stopTime="0.00" timeLoss="3.41" rerouteNo="0" devices="tripinfo_veh_5" vType="0" speedFactor="0.83" vaporized=""/>
    <tripinfo id="veh_19" depart="12.00" departLane="north_down_0" departPos="3.10" departSpeed="0.00" departDelay="4.00" arrival="30.00" arrivalLane="west_left_0" arrivalPos="91.95" arrivalSpeed="13.13" duration="18.00" routeLength="185.80" waitingTime="0.00" waitingCount="0" stopTime="0.00" timeLoss="4.18" rerouteNo="0" devices="tripinfo_veh_19" vType="1" speedFactor="1.16" vaporized=""/>
    <tripinfo id="veh_7" depart="4.00" departLane="south_up_0" departPos="4.10" departSpeed="0.00" departDelay="2.00" arrival="32.00" arrivalLane="north_up_0" arrivalPos="91.95" arrivalSpeed="11.53" duration="28.00" routeLength="195.90" waitingTime="2.00" waitingCount="1" stopTime="0.00" timeLoss="11.45" rerouteNo="0" devices="tripinfo_veh_7" vType="2" speedFactor="0.89" vaporized=""/>
    <tripinfo id="veh_11" depart="8.00" departLane="south_up_0" departPos="5.10" departSpeed="0.00" departDelay="5.00" arrival="32.00" arrivalLane="east_right_0" arrivalPos="91.95" arrivalSpeed="13.51" duration="24.00" routeLength="183.80" waitingTime="1.00" waitingCount="1" stopTime="0.00" timeLoss="10.73" rerouteNo="0" devices="tripinfo_veh_11" vType="0" speedFactor="1.03" vaporized=""/>
    <tripinfo id="veh_15" depart="12.00" departLane="south_up_0" departPos="10.10" departSpeed="0.00" departDelay="8.00" arrival="35.00" arrivalLane="east_right_0" arrivalPos="91.95" arrivalSpeed="12.63" duration="23.00" routeLength="178.80" waitingTime="0.00" waitingCount="0" stopTime="0.00" timeLoss="8.45" rerouteNo="0" devices="tripinfo_veh_15" vType="3" speedFactor="0.93" vaporized=""/>
    <tripinfo id="veh_27" depart="17.00" departLane="north_down_0" departPos="10.10" departSpeed="0.00" departDelay="5.00" arrival="36.00" arrivalLane="south_down_0" arrivalPos="91.95" arrivalSpeed="12.23" duration="19.00" routeLength="189.90" waitingTime="0.00" waitingCount="0" stopTime="0.00" timeLoss="4.21" rerouteNo="0" devices="tripinfo_veh_27" vType="3" speedFactor="0.95" vaporized=""/>
    <tripinfo id="veh_21" depart="18.00" departLane="south_up_0" departPos="4.10" departSpeed="0.00" departDelay="10.00" arrival="37.00" arrivalLane="east_right_0" arrivalPos="91.95" arrivalSpeed="13.72" duration="19.00" routeLength="184.80" waitingTime="0.00" waitingCount="0" stopTime="0.00" timeLoss="5.22" rerouteNo="0" devices="tripinfo_veh_21" vType="2" speedFactor="1.01" vaporized=""/>
    <tripinfo id="veh_31" depart="20.00" departLane="north_down_0" departPos="5.10" departSpeed="0.00" departDelay="6.00" arrival="38.00" arrivalLane="west_left_0" arrivalPos="91.95" arrivalSpeed="13.71" duration="18.00" routeLength="183.80" waitingTime="0.00" waitingCount="0" stopTime="0.00" timeLoss="4.28" rerouteNo="0" devices="tripinfo_veh_31" vType="0" speedFactor="1.15" vaporized=""/>
    <tripinfo id="veh_25" depart="21.00" departLane="south_up_0" departPos="3.10" departSpeed="0.00" departDelay="12.00" arrival="42.00" arrivalLane="north_up_0" arrivalPos="91.95" arrivalSpeed="12.08" duration="21.00" routeLength="196.90" waitingTime="0.00" waitingCount="0" stopTime="0.00" timeLoss="4.58" rerouteNo="0" devices="tripinfo_veh_25" vType="1" speedFactor="0.87" vaporized=""/>
    <tripinfo id="veh_29" depart="24.00" departLane="south_up_0" departPos="4.10" departSpeed="0.00" departDelay="12.00" arrival="44.00" arrivalLane="east_right_0" arrivalPos="91.95" arrivalSpeed="12.45" duration="20.00" routeLength="184.80" waitingTime="0.00" waitingCount="0" stopTime="0.00" timeLoss="5.36" rerouteNo="0" devices="tripinfo_veh_29" vType="2" speedFactor="0.93" vaporized=""/>
    <tripinfo id="veh_39" depart="26.00" departLane="north_down_0" departPos="10.10" departSpeed="0.00" departDelay="10.00" arrival="45.00" arrivalLane="south_down_0" arrivalPos="91.95" arrivalSpeed="11.76" duration="19.00" routeLength="189.90" waitingTime="0.00" waitingCount="0" stopTime="0.00" timeLoss="3.66" rerouteNo="0" devices="tripinfo_veh_39" vType="3" speedFactor="0.90" vaporized=""/>
    <tripinfo id="veh_9" depart="8.00" departLane="north_down_0" departPos="10.10" departSpeed="0.00" departDelay="5.00" arrival="49.00" arrivalLane="east_right_1" arrivalPos="91.95" arrivalSpeed="11.70" duration="41.00" routeLength="189.44" waitingTime="12.00" waitingCount="1" stopTime="0.00" timeLoss="24.14" rerouteNo="0" devices="tripinfo_veh_9" vType="3" speedFactor="0.86" vaporized=""/>
    <tripinfo id="veh_17" depart="16.00" departLane="south_up_0" departPos="10.10" departSpeed="0.00" departDelay="11.00" arrival="50.00" arrivalLane="west_left_1" arrivalPos="91.95" arrivalSpeed="12.84" duration="34.00" routeLength="189.44" waitingTime="8.00" waitingCount="1" stopTime="0.00" timeLoss="19.18" rerouteNo="0" devices="tripinfo_veh_17" vType="3" speedFactor="0.94" vaporized=""/>
    <tripinfo id="veh_0" depart="1.00" departLane="west_right_0" departPos="4.10" departSpeed="0.00" departDelay="0.00" arrival="51.00" arrivalLane="south_down_0" arrivalPos="91.95" arrivalSpeed="13.57" duration="50.00" routeLength="184.80" waitingTime="25.00" waitingCount="1" stopTime="0.00" timeLoss="36.35" rerouteNo="0" devices="tripinfo_veh_0" vType="2" speedFactor="1.06" vaporized=""/>
    <tripinfo id="veh_2" depart="1.00" departLane="east_left_0" departPos="10.10" departSpeed="0.00" departDelay="0.00" arrival="51.00" arrivalLane="north_up_0" arrivalPos="91.95" arrivalSpeed="13.86" duration="50.00" routeLength="178.80" waitingTime="25.00" waitingCount="1" stopTime="0.00" timeLoss="36.93" rerouteNo="0" devices="tripinfo_veh_2" vType="3" speedFactor="1.01" vaporized=""/>
    <tripinfo id="veh_4" depart="6.00" departLane="west_right_0" departPos="10.10" departSpeed="0.00" departDelay="4.00" arrival="53.00" arrivalLane="east_right_0" arrivalPos="91.95" arrivalSpeed="13.50" duration="47.00" routeLength="189.90" waitingTime="23.00" waitingCount="1" stopTime="0.00" timeLoss="33.31" rerouteNo="0" devices="tripinfo_veh_4" vType="3" speedFactor="1.03" vaporized=""/>
    <tripinfo id="veh_6" depart="5.00" departLane="east_left_0" departPos="10.10" departSpeed="0.00" departDelay="3.00" arrival="54.00" arrivalLane="west_left_0" arrivalPos="91.95" arrivalSpeed="13.75" duration="49.00" routeLength="189.90" waitingTime="23.00" waitingCount="1" stopTime="0.00" timeLoss="34.76" rerouteNo="0" devices="tripinfo_veh_6" vType="3" speedFactor="1.05" vaporized=""/>
    <tripinfo id="veh_8" depart="9.00" departLane="west_right_0" departPos="4.10" departSpeed="0.00" departDelay="6.00" arrival="55.00" arrivalLane="south_down_0" arrivalPos="91.95" arrivalSpeed="12.08" duration="46.00" routeLength="184.80" waitingTime="20.00" waitingCount="1" stopTime="0.00" timeLoss="31.69" rerouteNo="0" devices="tripinfo_veh_8" vType="2" speedFactor="0.94" vaporized=""/>
    <tripinfo id="veh_14" depart="11.00" departLane="east_left_0" departPos="4.10" departSpeed="0.00" departDelay="7.00" arrival="56.00" arrivalLane="north_up_0" arrivalPos="91.95" arrivalSpeed="13.64" duration="45.00" routeLength="184.80" waitingTime="17.00" waitingCount="1" stopTime="0.00" timeLoss="30.99" rerouteNo="0" devices="tripinfo_veh_14" vType="2" speedFactor="0.99" vaporized=""/>
    <tripinfo id="veh_12" depart="13.00" departLane="west_right_0" departPos="5.10" departSpeed="0.00" departDelay="9.00" arrival="58.00" arrivalLane="east_right_0" arrivalPos="91.95" arrivalSpeed="13.86" duration="45.00" routeLength="194.90" waitingTime="18.00" waitingCount="1" stopTime="0.00" timeLoss="30.67" rerouteNo="0" devices="tripinfo_veh_12" vType="0" speedFactor="1.05" vaporized=""/>
    <tripinfo id="veh_16" depart="14.00" departLane="east_left_0" departPos="5.10" departSpeed="0.00" departDelay="9.00" arrival="59.00" arrivalLane="west_left_0" arrivalPos="91.95" arrivalSpeed="11.86" duration="45.00" routeLength="194.90" waitingTime="17.00" waitingCount="1" stopTime="0.00" timeLoss="28.73" rerouteNo="0" devices="tripinfo_veh_16" vType="0" speedFactor="0.88" vaporized=""/>
    <tripinfo id="veh_18" depart="16.00" departLane="west_right_0" departPos="3.10" departSpeed="0.00" departDelay="8.00" arrival="59.00" arrivalLane="south_down_0" arrivalPos="91.95" arrivalSpeed="12.98" duration="43.00" routeLength="185.80" waitingTime="16.00" waitingCount="1" stopTime="0.00" timeLoss="28.55" rerouteNo="0" devices="tripinfo_veh_18" vType="1" speedFactor="0.94" vaporized=""/>
    <tripinfo id="veh_24" depart="20.00" departLane="east_left_0" departPos="5.10" departSpeed="0.00" departDelay="11.00" arrival="61.00" arrivalLane="north_up_0" arrivalPos="91.95" arrivalSpeed="11.02" duration="41.00" routeLength="183.80" waitingTime="14.00" waitingCount="1" stopTime="0.00" timeLoss="24.23" rerouteNo="0" devices="tripinfo_veh_24" vType="0" speedFactor="0.83" vaporized=""/>
    <tripinfo id="veh_22" depart="21.00" departLane="west_right_0" departPos="10.10" departSpeed="0.00" departDelay="12.00" arrival="62.00" arrivalLane="east_right_0" arrivalPos="91.95" arrivalSpeed="13.08" duration="41.00" routeLength="189.90" waitingTime="14.00" waitingCount="1" stopTime="0.00" timeLoss="26.04" rerouteNo="0" devices="tripinfo_veh_22" vType="3" speedFactor="0.98" vaporized=""/>
    <tripinfo id="veh_32" depart="25.00" departLane="east_left_0" departPos="10.10" departSpeed="0.00" departDelay="11.00" arrival="62.00" arrivalLane="west_left_0" arrivalPos="91.95" arrivalSpeed="13.41" duration="37.00" routeLength="189.90" waitingTime="11.00" waitingCount="1" stopTime="0.00" timeLoss="23.15" rerouteNo="0" devices="tripinfo_veh_32" vType="3" speedFactor="1.01" vaporized=""/>
    <tripinfo id="veh_26" depart="25.00" departLane="west_right_0" departPos="10.10" departSpeed="0.00" departDelay="13.00" arrival="64.00" arrivalLane="east_right_0" arrivalPos="91.95" arrivalSpeed="12.44" duration="39.00" routeLength="189.90" waitingTime="14.00" waitingCount="1" stopTime="0.00" timeLoss="23.91" rerouteNo="0" devices="tripinfo_veh_26" vType="3" speedFactor="0.92" vaporized=""/>
    <tripinfo id="veh_42" depart="37.00" departLane="west_right_0" departPos="4.10" departSpeed="0.00" departDelay="20.00" arrival="67.00" arrivalLane="north_up_1" arrivalPos="91.95" arrivalSpeed="13.96" duration="30.00" routeLength="195.44" waitingTime="4.00" waitingCount="2" stopTime="0.00" timeLoss="15.95" rerouteNo="0" devices="tripinfo_veh_42" vType="2" speedFactor="1.09" vaporized=""/>
    <tripinfo id="veh_10" depart="8.00" departLane="east_left_0" departPos="3.10" departSpeed="0.00" departDelay="5.00" arrival="69.00" arrivalLane="south_down_1" arrivalPos="91.95" arrivalSpeed="13.72" duration="61.00" routeLength="196.44" waitingTime="31.00" waitingCount="2" stopTime="0.00" timeLoss="46.16" rerouteNo="0" devices="tripinfo_veh_10" vType="1" speedFactor="1.09" vaporized=""/>
    <tripinfo id="veh_20" depart="17.00" departLane="east_left_0" departPos="4.10" departSpeed="0.00" departDelay="9.00" arrival="70.00" arrivalLane="south_down_1" arrivalPos="91.95" arrivalSpeed="13.45" duration="53.00" routeLength="195.44" waitingTime="22.00" waitingCount="2" stopTime="0.00" timeLoss="38.80" rerouteNo="0" devices="tripinfo_veh_20" vType="2" speedFactor="1.02" vaporized=""/>
    <tripinfo id="veh_43" depart="29.00" departLane="north_down_0" departPos="5.10" departSpeed="0.00" departDelay="12.00" arrival="71.00" arrivalLane="west_left_0" arrivalPos="91.95" arrivalSpeed="13.85" duration="42.00" routeLength="183.80" waitingTime="17.00" waitingCount="1" stopTime="0.00" timeLoss="28.31" rerouteNo="0" devices="tripinfo_veh_43" vType="0" speedFactor="1.04" vaporized=""/>
    <tripinfo id="veh_33" depart="27.00" departLane="south_up_0" departPos="3.10" departSpeed="0.00" departDelay="13.00" arrival="72.00" arrivalLane="north_up_0" arrivalPos="91.95" arrivalSpeed="13.43" duration="45.00" routeLength="196.90" waitingTime="19.00" waitingCount="1" stopTime="0.00" timeLoss="30.02" rerouteNo="0" devices="tripinfo_veh_33" vType="1" speedFactor="1.17" vaporized=""/>
    <tripinfo id="veh_41" depart="34.00" departLane="south_up_0" departPos="3.10" departSpeed="0.00" departDelay="18.00" arrival="73.00" arrivalLane="north_up_0" arrivalPos="91.95" arrivalSpeed="12.51" duration="39.00" routeLength="196.90" waitingTime="13.00" waitingCount="1" stopTime="0.00" timeLoss="24.15" rerouteNo="0" devices="tripinfo_veh_41" vType="1" speedFactor="0.96" vaporized=""/>
    <tripinfo id="veh_53" depart="34.00" departLane="north_down_0" departPos="10.10" departSpeed="0.00" departDelay="13.00" arrival="74.00" arrivalLane="south_down_0" arrivalPos="91.95" arrivalSpeed="13.74" duration="40.00" routeLength="189.90" waitingTime="14.00" waitingCount="1" stopTime="0.00" timeLoss="25.47" rerouteNo="0" devices="tripinfo_veh_53" vType="3" speedFactor="1.10" vaporized=""/>
    <tripinfo id="veh_45" depart="37.00" departLane="south_up_0" departPos="5.10" departSpeed="0.00" departDelay="20.00" arrival="75.00" arrivalLane="north_up_0" arrivalPos="91.95" arrivalSpeed="13.39" duration="38.00" routeLength="194.90" waitingTime="11.00" waitingCount="1" stopTime="0.00" timeLoss="23.74" rerouteNo="0" devices="tripinfo_veh_45" vType="0" speedFactor="1.09" vaporized=""/>
    <tripinfo id="veh_57" depart="37.00" departLane="north_down_0" departPos="3.10" departSpeed="0.00" departDelay="14.00" arrival="76.00" arrivalLane="south_down_0" arrivalPos="91.95" arrivalSpeed="13.92" duration="39.00" routeLength="196.90" waitingTime="13.00" waitingCount="1" stopTime="0.00" timeLoss="24.49" rerouteNo="0" devices="tripinfo_veh_57" vType="1" speedFactor="1.14" vaporized=""/>
    <tripinfo id="veh_47" depart="40.00" departLane="south_up_0" departPos="5.10" departSpeed="0.00" departDelay="22.00" arrival="77.00" arrivalLane="north_up_0" arrivalPos="91.95" arrivalSpeed="12.47" duration="37.00" routeLength="194.90" waitingTime="11.00" waitingCount="1" stopTime="0.00" timeLoss="21.34" rerouteNo="0" devices="tripinfo_veh_47" vType="0" speedFactor="0.90" vaporized=""/>
    <tripinfo id="veh_55" depart="45.00" departLane="south_up_0" departPos="3.10" departSpeed="0.00" departDelay="24.00" arrival="78.00" arrivalLane="east_right_0" arrivalPos="91.95" arrivalSpeed="13.33" duration="33.00" routeLength="185.80" waitingTime="8.00" waitingCount="1" stopTime="0.00" timeLoss="18.89" rerouteNo="0" devices="tripinfo_veh_55" vType="1" speedFactor="1.00" vaporized=""/>
    <tripinfo id="veh_61" depart="40.00" departLane="north_down_0" departPos="3.10" departSpeed="0.00" departDelay="12.00" arrival="78.00" arrivalLane="south_down_0" arrivalPos="91.95" arrivalSpeed="13.17" duration="38.00" routeLength="196.90" waitingTime="12.00" waitingCount="1" stopTime="0.00" timeLoss="23.15" rerouteNo="0" devices="tripinfo_veh_61" vType="1" speedFactor="1.12" vaporized=""/>
    <tripinfo id="veh_73" depart="44.00" departLane="north_down_0" departPos="5.10" departSpeed="0.00" departDelay="7.00" arrival="78.00" arrivalLane="west_left_0" arrivalPos="91.95" arrivalSpeed="13.40" duration="34.00" routeLength="183.80" waitingTime="8.00" waitingCount="1" stopTime="0.00" timeLoss="20.83" rerouteNo="0" devices="tripinfo_veh_73" vType="0" speedFactor="1.06" vaporized=""/>
    <tripinfo id="veh_59" depart="48.00" departLane="south_up_0" departPos="3.10" departSpeed="0.00" departDelay="25.00" arrival="80.00" arrivalLane="east_right_0" arrivalPos="91.95" arrivalSpeed="12.48" duration="32.00" routeLength="185.80" waitingTime="6.00" waitingCount="1" stopTime="0.00" timeLoss="17.49" rerouteNo="0" devices="tripinfo_veh_59" vType="1" speedFactor="0.97" vaporized=""/>
    <tripinfo id="veh_63" depart="51.00" departLane="south_up_0" departPos="3.10" departSpeed="0.00" departDelay="23.00" arrival="81.00" arrivalLane="east_right_0" arrivalPos="91.95" arrivalSpeed="12.81" duration="30.00" routeLength="185.80" waitingTime="4.00" waitingCount="1" stopTime="0.00" timeLoss="16.40" rerouteNo="0" devices="tripinfo_veh_63" vType="1" speedFactor="0.99" vaporized=""/>
    <tripinfo id="veh_77" depart="48.00" departLane="north_down_0" departPos="10.10" departSpeed="0.00" departDelay="8.00" arrival="81.00" arrivalLane="south_down_0" arrivalPos="91.95" arrivalSpeed="13.18" duration="33.00" routeLength="189.90" waitingTime="7.00" waitingCount="1" stopTime="0.00" timeLoss="18.75" rerouteNo="0" devices="tripinfo_veh_77" vType="3" speedFactor="0.98" vaporized=""/>
    <tripinfo id="veh_89" depart="55.00" departLane="north_down_0" departPos="3.10" departSpeed="0.00" departDelay="12.00" arrival="83.00" arrivalLane="west_left_0" arrivalPos="91.95" arrivalSpeed="13.95" duration="28.00" routeLength="185.80" waitingTime="1.00" waitingCount="1" stopTime="0.00" timeLoss="13.90" rerouteNo="0" devices="tripinfo_veh_89" vType="1" speedFactor="1.02" vaporized=""/>
    <tripinfo id="veh_67" depart="55.00" departLane="south_up_0" departPos="10.10" departSpeed="0.00" departDelay="26.00" arrival="84.00" arrivalLane="east_right_0" arrivalPos="91.95" arrivalSpeed="12.27" duration="29.00" routeLength="178.80" waitingTime="3.00" waitingCount="1" stopTime="0.00" timeLoss="14.33" rerouteNo="0" devices="tripinfo_veh_67" vType="3" speedFactor="0.91" vaporized=""/>
    <tripinfo id="veh_37" depart="32.00" departLane="south_up_0" departPos="10.10" departSpeed="0.00" departDelay="17.00" arrival="86.00" arrivalLane="west_left_1" arrivalPos="91.95" arrivalSpeed="13.83" duration="54.00" routeLength="189.44" waitingTime="26.00" waitingCount="2" stopTime="0.00" timeLoss="40.36" rerouteNo="0" devices="tripinfo_veh_37" vType="3" speedFactor="1.18" vaporized=""/>
    <tripinfo id="veh_13" depart="10.00" departLane="north_down_0" departPos="4.10" departSpeed="0.00" departDelay="6.00" arrival="88.00" arrivalLane="east_right_1" arrivalPos="91.95" arrivalSpeed="13.68" duration="78.00" routeLength="195.44" waitingTime="44.00" waitingCount="3" stopTime="0.00" timeLoss="63.60" rerouteNo="0" devices="tripinfo_veh_13" vType="2" speedFactor="1.12" vaporized=""/>
    <tripinfo id="veh_23" depart="15.00" departLane="north_down_0" departPos="3.10" departSpeed="0.00" departDelay="6.00" arrival="90.00" arrivalLane="east_right_1" arrivalPos="91.95" arrivalSpeed="11.42" duration="75.00" routeLength="196.44" waitingTime="40.00" waitingCount="3" stopTime="0.00" timeLoss="58.87" rerouteNo="0" devices="tripinfo_veh_23" vType="1" speedFactor="0.89" vaporized=""/>
    <tripinfo id="veh_30" depart="28.00" departLane="west_right_0" departPos="5.10" departSpeed="0.00" departDelay="14.00" arrival="92.00" arrivalLane="east_right_0" arrivalPos="91.95" arrivalSpeed="13.47" duration="64.00" routeLength="194.90" waitingTime="31.00" waitingCount="2" stopTime="0.00" timeLoss="49.56" rerouteNo="0" devices="tripinfo_veh_30" vType="0" speedFactor="1.18" vaporized=""/>
    <tripinfo id="veh_36" depart="30.00" departLane="east_left_0" departPos="10.10" departSpeed="0.00" departDelay="15.00" arrival="92.00" arrivalLane="west_left_0" arrivalPos="91.95" arrivalSpeed="12.70" duration="62.00" routeLength="189.90" waitingTime="29.00" waitingCount="2" stopTime="0.00" timeLoss="47.87" rerouteNo="0" devices="tripinfo_veh_36" vType="3" speedFactor="0.97" vaporized=""/>
    <tripinfo id="veh_34" depart="31.00" departLane="west_right_0" departPos="3.10" departSpeed="0.00" departDelay="16.00" arrival="94.00" arrivalLane="east_right_0" arrivalPos="91.95" arrivalSpeed="13.76" duration="63.00" routeLength="196.90" waitingTime="30.00" waitingCount="2" stopTime="0.00" timeLoss="48.04" rerouteNo="0" devices="tripinfo_veh_34" vType="1" speedFactor="0.99" vaporized=""/>
    <tripinfo id="veh_38" depart="34.00" departLane="west_right_0" departPos="5.10" departSpeed="0.00" departDelay="18.00" arrival="94.00" arrivalLane="south_down_0" arrivalPos="91.95" arrivalSpeed="14.00" duration="60.00" routeLength="183.80" waitingTime="27.00" waitingCount="2" stopTime="0.00" timeLoss="46.54" rerouteNo="0" devices="tripinfo_veh_38" vType="0" speedFactor="1.10" vaporized=""/>
    <tripinfo id="veh_40" depart="33.00" departLane="east_left_0" departPos="4.10" departSpeed="0.00" departDelay="17.00" arrival="94.00" arrivalLane="north_up_0" arrivalPos="91.95" arrivalSpeed="13.02" duration="61.00" routeLength="184.80" waitingTime="27.00" waitingCount="2" stopTime="0.00" timeLoss="47.08" rerouteNo="0" devices="tripinfo_veh_40" vType="2" speedFactor="1.03" vaporized=""/>
    <tripinfo id="veh_46" depart="37.00" departLane="east_left_0" departPos="3.10" departSpeed="0.00" departDelay="19.00" arrival="97.00" arrivalLane="west_left_0" arrivalPos="91.95" arrivalSpeed="13.80" duration="60.00" routeLength="196.90" waitingTime="24.00" waitingCount="2" stopTime="0.00" timeLoss="44.90" rerouteNo="0" devices="tripinfo_veh_46" vType="1" speedFactor="1.00" vaporized=""/>
    <tripinfo id="veh_48" depart="38.00" departLane="west_right_0" departPos="3.10" departSpeed="0.00" departDelay="19.00" arrival="98.00" arrivalLane="east_right_0" arrivalPos="91.95" arrivalSpeed="11.33" duration="60.00" routeLength="196.90" waitingTime="26.00" waitingCount="2" stopTime="0.00" timeLoss="43.20" rerouteNo="0" devices="tripinfo_veh_48" vType="1" speedFactor="0.88" vaporized=""/>
    <tripinfo id="veh_58" depart="55.00" departLane="east_left_0" departPos="10.10" departSpeed="0.00" departDelay="32.00" arrival="98.00" arrivalLane="west_left_0" arrivalPos="91.95" arrivalSpeed="13.01" duration="43.00" routeLength="189.90" waitingTime="14.00" waitingCount="1" stopTime="0.00" timeLoss="29.16" rerouteNo="0" devices="tripinfo_veh_58" vType="3" speedFactor="1.02" vaporized=""/>
    <tripinfo id="veh_52" depart="54.00" departLane="west_right_0" departPos="5.10" departSpeed="0.00" departDelay="33.00" arrival="99.00" arrivalLane="east_right_0" arrivalPos="91.95" arrivalSpeed="13.98" duration="45.00" routeLength="194.90" waitingTime="16.00" waitingCount="1" stopTime="0.00" timeLoss="30.83" rerouteNo="0" devices="tripinfo_veh_52" vType="0" speedFactor="1.02" vaporized=""/>
    <tripinfo id="veh_62" depart="58.00" departLane="east_left_0" departPos="4.10" departSpeed="0.00" departDelay="30.00" arrival="99.00" arrivalLane="north_up_0" arrivalPos="91.95" arrivalSpeed="13.50" duration="41.00" routeLength="184.80" waitingTime="15.00" waitingCount="1" stopTime="0.00" timeLoss="27.65" rerouteNo="0" devices="tripinfo_veh_62" vType="2" speedFactor="1.02" vaporized=""/>
    <tripinfo id="veh_64" depart="63.00" departLane="west_right_0" departPos="5.10" departSpeed="0.00" departDelay="34.00" arrival="100.00" arrivalLane="south_down_0" arrivalPos="91.95" arrivalSpeed="12.17" duration="37.00" routeLength="183.80" waitingTime="10.00" waitingCount="1" stopTime="0.00" timeLoss="22.79" rerouteNo="0" devices="tripinfo_veh_64" vType="0" speedFactor="0.94" vaporized=""/>
    <tripinfo id="veh_68" depart="62.00" departLane="east_left_0" departPos="3.10" departSpeed="0.00" departDelay="32.00" arrival="101.00" arrivalLane="north_up_0" arrivalPos="91.95" arrivalSpeed="13.19" duration="39.00" routeLength="185.80" waitingTime="12.00" waitingCount="1" stopTime="0.00" timeLoss="25.33" rerouteNo="0" devices="tripinfo_veh_68" vType="1" speedFactor="1.04" vaporized=""/>
    <tripinfo id="veh_72" depart="66.00" departLane="west_right_0" departPos="4.10" departSpeed="0.00" departDelay="29.00" arrival="102.00" arrivalLane="south_down_0" arrivalPos="91.95" arrivalSpeed="12.75" duration="36.00" routeLength="184.80" waitingTime="8.00" waitingCount="1" stopTime="0.00" timeLoss="21.53" rerouteNo="0" devices="tripinfo_veh_72" vType="2" speedFactor="0.94" vaporized=""/>
    <tripinfo id="veh_74" depart="67.00" departLane="east_left_0" departPos="10.10" departSpeed="0.00" departDelay="30.00" arrival="104.00" arrivalLane="west_left_0" arrivalPos="91.95" arrivalSpeed="13.17" duration="37.00" routeLength="189.90" waitingTime="11.00" waitingCount="1" stopTime="0.00" timeLoss="22.22" rerouteNo="0" devices="tripinfo_veh_74" vType="3" speedFactor="0.96" vaporized=""/>
    <tripinfo id="veh_28" depart="23.00" departLane="east_left_0" departPos="4.10" departSpeed="0.00" departDelay="11.00" arrival="107.00" arrivalLane="south_down_1" arrivalPos="91.95" arrivalSpeed="13.32" duration="84.00" routeLength="195.44" waitingTime="46.00" waitingCount="4" stopTime="0.00" timeLoss="69.39" rerouteNo="0" devices="tripinfo_veh_28" vType="2" speedFactor="1.13" vaporized=""/>
    <tripinfo id="veh_44" depart="36.00" departLane="east_left_0" departPos="5.10" departSpeed="0.00" departDelay="19.00" arrival="109.00" arrivalLane="south_down_1" arrivalPos="91.95" arrivalSpeed="13.96" duration="73.00" routeLength="194.44" waitingTime="38.00" waitingCount="3" stopTime="0.00" timeLoss="58.17" rerouteNo="0" devices="tripinfo_veh_44" vType="0" speedFactor="1.04" vaporized=""/>
    <tripinfo id="veh_56" depart="57.00" departLane="west_right_0" departPos="4.10" departSpeed="0.00" departDelay="34.00" arrival="109.00" arrivalLane="north_up_1" arrivalPos="91.95" arrivalSpeed="12.30" duration="52.00" routeLength="195.44" waitingTime="22.00" waitingCount="2" stopTime="0.00" timeLoss="36.07" rerouteNo="0" devices="tripinfo_veh_56" vType="2" speedFactor="0.90" vaporized=""/>
    <tripinfo id="veh_69" depart="58.00" departLane="south_up_0" departPos="5.10" departSpeed="0.00" departDelay="28.00" arrival="110.00" arrivalLane="east_right_0" arrivalPos="91.95" arrivalSpeed="13.61" duration="52.00" routeLength="183.80" waitingTime="20.00" waitingCount="2" stopTime="0.00" timeLoss="38.67" rerouteNo="0" devices="tripinfo_veh_69" vType="0" speedFactor="1.02" vaporized=""/>
    <tripinfo id="veh_60" depart="61.00" departLane="west_right_0" departPos="4.10" departSpeed="0.00" departDelay="33.00" arrival="111.00" arrivalLane="north_up_1" arrivalPos="91.95" arrivalSpeed="13.69" duration="50.00" routeLength="195.44" waitingTime="19.00" waitingCount="2" stopTime="0.00" timeLoss="35.40" rerouteNo="0" devices="tripinfo_veh_60" vType="2" speedFactor="1.08" vaporized=""/>
    <tripinfo id="veh_97" depart="59.00" departLane="north_down_0" departPos="10.10" departSpeed="0.00" departDelay="11.00" arrival="111.00" arrivalLane="west_left_0" arrivalPos="91.95" arrivalSpeed="11.76" duration="52.00" routeLength="178.80" waitingTime="20.00" waitingCount="1" stopTime="0.00" timeLoss="37.65" rerouteNo="0" devices="tripinfo_veh_97" vType="3" speedFactor="0.91" vaporized=""/>
    <tripinfo id="veh_51" depart="43.00" departLane="south_up_0" departPos="3.10" departSpeed="0.00" departDelay="24.00" arrival="112.00" arrivalLane="west_left_1" arrivalPos="91.95" arrivalSpeed="13.47" duration="69.00" routeLength="196.44" waitingTime="36.00" waitingCount="3" stopTime="0.00" timeLoss="54.05" rerouteNo="0" devices="tripinfo_veh_51" vType="1" speedFactor="1.17" vaporized=""/>
    <tripinfo id="veh_71" depart="61.00" departLane="south_up_0" departPos="3.10" departSpeed="0.00" departDelay="25.00" arrival="112.00" arrivalLane="east_right_0" arrivalPos="91.95" arrivalSpeed="13.44" duration="51.00" routeLength="185.80" waitingTime="18.00" waitingCount="1" stopTime="0.00" timeLoss="37.18" rerouteNo="0" devices="tripinfo_veh_71" vType="1" speedFactor="0.97" vaporized=""/>
    <tripinfo id="veh_75" depart="64.00" departLane="south_up_0" departPos="3.10" departSpeed="0.00" departDelay="27.00" arrival="114.00" arrivalLane="east_right_0" arrivalPos="91.95" arrivalSpeed="12.70" duration="50.00" routeLength="185.80" waitingTime="17.00" waitingCount="1" stopTime="0.00" timeLoss="36.16" rerouteNo="0" devices="tripinfo_veh_75" vType="1" speedFactor="0.98" vaporized=""/>