<?xml version="1.0" encoding="UTF-8"?>

<!-- generated on 2021-11-10 12:48:36 by Eclipse SUMO GUI Version 1.10.0
<configuration xmlns:xsi="http://www.w3.org/2001/XMLSchema-instance" xsi:noNamespaceSchemaLocation="http://sumo.dlr.de/xsd/sumoConfiguration.xsd">

    <input>
        <net-file value="intersection.net.xml"/>
        <route-files value="live.rou.xml"/>
    </input>

    <output>
        <tripinfo-output value="tripinfo.xml"/>
        <tripinfo-output.write-unfinished value="true"/>
    </output>

    <time>
        <begin value="0"/>
    </time>

    <processing>
        <time-to-teleport value="-1"/>
        <waiting-time-memory value="1000"/>
    </processing>

    <report>
        <verbose value="true"/>
        <message-log value="statistic.xml"/>
        <error-log value="error.log.xml"/>
        <duration-log.statistics value="true"/>
        <no-step-log value="true"/>
    </report>

    <traci_server>
        <remote-port value="61066"/>
    </traci_server>

</configuration>
-->

<tripinfos xmlns:xsi="http://www.w3.org/2001/XMLSchema-instance" xsi:noNamespaceSchemaLocation="http://sumo.dlr.de/xsd/tripinfo_file.xsd">
    <tripinfo id="veh_3" depart="1.00" departLane="south_up_0" departPos="4.10" departSpeed="0.00" departDelay="0.00" arrival="19.00" arrivalLane="east_right_0" arrivalPos="91.95" arrivalSpeed="13.14" duration="18.00" routeLength="184.80" waitingTime="0.00" waitingCount="0" stopTime="0.00" timeLoss="4.36" rerouteNo="0" devices="tripinfo_veh_3" vType="2" speedFactor="1.08" vaporized=""/>
    <tripinfo id="veh_1" depart="1.00" departLane="north_down_0" departPos="3.10" departSpeed="0.00" departDelay="0.00" arrival="23.00" arrivalLane="east_right_1" arrivalPos="91.95" arrivalSpeed="12.90" duration="22.00" routeLength="196.44" waitingTime="0.00" waitingCount="0" stopTime="0.00" timeLoss="5.97" rerouteNo="0" devices="tripinfo_veh_1" vType="1" speedFactor="0.94" vaporized=""/>
    <tripinfo id="veh_5" depart="4.00" departLane="north_down_0" departPos="5.10" departSpeed="0.00" departDelay="2.00" arrival="24.00" arrivalLane="west_left_0" arrivalPos="91.95" arrivalSpeed="10.76" duration="20.00" routeLength="183.80" waitingTime="0.00" waitingCount="0" stopTime="0.00" timeLoss="3.41" rerouteNo="0" devices="tripinfo_veh_5" vType="0" speedFactor="0.83" vaporized=""/>
    <tripinfo id="veh_7" depart="4.00" departLane="south_up_0" departPos="4.10" departSpeed="0.00" departDelay="2.00" arrival="25.00" arrivalLane="north_up_0" arrivalPos="91.95" arrivalSpeed="11.53" duration="21.00" routeLength="195.90" waitingTime="0.00" waitingCount="0" stopTime="0.00" timeLoss="4.74" rerouteNo="0" devices="tripinfo_veh_7" vType="2" speedFactor="0.89" vaporized=""/>
    <tripinfo id="veh_11" depart="8.00" departLane="south_up_0" departPos="5.10" departSpeed="0.00" departDelay="5.00" arrival="25.00" arrivalLane="east_right_0" arrivalPos="91.95" arrivalSpeed="13.12" duration="17.00" routeLength="183.80" waitingTime="0.00" waitingCount="0" stopTime="0.00" timeLoss="3.87" rerouteNo="0" devices="tripinfo_veh_11" vType="0" speedFactor="1.03" vaporized=""/>
    <tripinfo id="veh_19" depart="12.00" departLane="north_down_0" departPos="3.10" departSpeed="0.00" departDelay="4.00" arrival="30.00" arrivalLane="west_left_0" arrivalPos="91.95" arrivalSpeed="13.13" duration="18.00" routeLength="185.80" waitingTime="0.00" waitingCount="0" stopTime="0.00" timeLoss="4.18" rerouteNo="0" devices="tripinfo_veh_19" vType="1" speedFactor="1.16" vaporized=""/>
    <tripinfo id="veh_15" depart="12.00" departLane="south_up_0" departPos="10.10" departSpeed="0.00" departDelay="8.00" arrival="31.00" arrivalLane="east_right_0" arrivalPos="91.95" arrivalSpeed="12.86" duration="19.00" routeLength="178.80" waitingTime="0.00" waitingCount="0" stopTime="0.00" timeLoss="4.43" rerouteNo="0" devices="tripinfo_veh_15" vType="3" speedFactor="0.93" vaporized=""/>
    <tripinfo id="veh_9" depart="8.00" departLane="north_down_0" departPos="10.10" departSpeed="0.00" departDelay="5.00" arrival="35.00" arrivalLane="east_right_1" arrivalPos="91.95" arrivalSpeed="11.20" duration="27.00" routeLength="189.44" waitingTime="0.00" waitingCount="0" stopTime="0.00" timeLoss="10.96" rerouteNo="0" devices="tripinfo_veh_9" vType="3" speedFactor="0.86" vaporized=""/>
    <tripinfo id="veh_21" depart="18.00" departLane="south_up_0" departPos="4.10" departSpeed="0.00" departDelay="10.00" arrival="36.00" arrivalLane="east_right_0" arrivalPos="91.95" arrivalSpeed="13.13" duration="18.00" routeLength="184.80" waitingTime="0.00" waitingCount="0" stopTime="0.00" timeLoss="4.31" rerouteNo="0" devices="tripinfo_veh_21" vType="2" speedFactor="1.01" vaporized=""/>
    <tripinfo id="veh_27" depart="17.00" departLane="north_down_0" departPos="10.10" departSpeed="0.00" departDelay="5.00" arrival="36.00" arrivalLane="south_down_0" arrivalPos="91.95" arrivalSpeed="12.23" duration="19.00" routeLength="189.90" waitingTime="0.00" waitingCount="0" stopTime="0.00" timeLoss="4.21" rerouteNo="0" devices="tripinfo_veh_27" vType="3" speedFactor="0.95" vaporized=""/>
    <tripinfo id="veh_31" depart="20.00" departLane="north_down_0" departPos="5.10" departSpeed="0.00" departDelay="6.00" arrival="38.00" arrivalLane="west_left_0" arrivalPos="91.95" arrivalSpeed="13.71" duration="18.00" routeLength="183.80" waitingTime="0.00" waitingCount="0" stopTime="0.00" timeLoss="4.28" rerouteNo="0" devices="tripinfo_veh_31" vType="0" speedFactor="1.15" vaporized=""/>
    <tripinfo id="veh_25" depart="21.00" departLane="south_up_0" departPos="3.10" departSpeed="0.00" departDelay="12.00" arrival="41.00" arrivalLane="north_up_0" arrivalPos="91.95" arrivalSpeed="11.36" duration="20.00" routeLength="196.90" waitingTime="0.00" waitingCount="0" stopTime="0.00" timeLoss="3.49" rerouteNo="0" devices="tripinfo_veh_25" vType="1" speedFactor="0.87" vaporized=""/>
    <tripinfo id="veh_17" depart="16.00" departLane="south_up_0" departPos="10.10" departSpeed="0.00" departDelay="11.00" arrival="44.00" arrivalLane="west_left_1" arrivalPos="91.95" arrivalSpeed="12.84" duration="28.00" routeLength="189.44" waitingTime="2.00" waitingCount="1" stopTime="0.00" timeLoss="13.42" rerouteNo="0" devices="tripinfo_veh_17" vType="3" speedFactor="0.94" vaporized=""/>
    <tripinfo id="veh_13" depart="10.00" departLane="north_down_0" departPos="4.10" departSpeed="0.00" departDelay="6.00" arrival="45.00" arrivalLane="east_right_1" arrivalPos="91.95" arrivalSpeed="13.16" duration="35.00" routeLength="195.44" waitingTime="3.00" waitingCount="1" stopTime="0.00" timeLoss="20.50" rerouteNo="0" devices="tripinfo_veh_13" vType="2" speedFactor="1.12" vaporized=""/>
    <tripinfo id="veh_23" depart="15.00" departLane="north_down_0" departPos="3.10" departSpeed="0.00" departDelay="6.00" arrival="47.00" arrivalLane="east_right_1" arrivalPos="91.95" arrivalSpeed="11.62" duration="32.00" routeLength="196.44" waitingTime="1.00" waitingCount="1" stopTime="0.00" timeLoss="16.01" rerouteNo="0" devices="tripinfo_veh_23" vType="1" speedFactor="0.89" vaporized=""/>
    <tripinfo id="veh_35" depart="24.00" departLane="north_down_0" departPos="10.10" departSpeed="0.00" departDelay="9.00" arrival="49.00" arrivalLane="east_right_1" arrivalPos="91.95" arrivalSpeed="13.19" duration="25.00" routeLength="189.44" waitingTime="0.00" waitingCount="0" stopTime="0.00" timeLoss="10.98" rerouteNo="0" devices="tripinfo_veh_35" vType="3" speedFactor="1.02" vaporized=""/>
    <tripinfo id="veh_29" depart="24.00" departLane="south_up_0" departPos="4.10" departSpeed="0.00" departDelay="12.00" arrival="54.00" arrivalLane="east_right_0" arrivalPos="91.95" arrivalSpeed="12.45" duration="30.00" routeLength="184.80" waitingTime="4.00" waitingCount="1" stopTime="0.00" timeLoss="15.20" rerouteNo="0" devices="tripinfo_veh_29" vType="2" speedFactor="0.93" vaporized=""/>
    <tripinfo id="veh_39" depart="26.00" departLane="north_down_0" departPos="10.10" departSpeed="0.00" departDelay="10.00" arrival="55.00" arrivalLane="south_down_0" arrivalPos="91.95" arrivalSpeed="12.48" duration="29.00" routeLength="189.90" waitingTime="3.00" waitingCount="1" stopTime="0.00" timeLoss="13.76" rerouteNo="0" devices="tripinfo_veh_39" vType="3" speedFactor="0.90" vaporized=""/>
    <tripinfo id="veh_43" depart="29.00" departLane="north_down_0" departPos="5.10" departSpeed="0.00" departDelay="12.00" arrival="56.00" arrivalLane="west_left_0" arrivalPos="91.95" arrivalSpeed="13.77" duration="27.00" routeLength="183.80" waitingTime="1.00" waitingCount="1" stopTime="0.00" timeLoss="13.35" rerouteNo="0" devices="tripinfo_veh_43" vType="0" speedFactor="1.04" vaporized=""/>
    <tripinfo id="veh_33" depart="27.00" departLane="south_up_0" departPos="3.10" departSpeed="0.00" departDelay="13.00" arrival="57.00" arrivalLane="north_up_0" arrivalPos="91.95" arrivalSpeed="13.87" duration="30.00" routeLength="196.90" waitingTime="3.00" waitingCount="1" stopTime="0.00" timeLoss="15.02" rerouteNo="0" devices="tripinfo_veh_33" vType="1" speedFactor="1.17" vaporized=""/>
    <tripinfo id="veh_41" depart="33.00" departLane="south_up_0" departPos="3.10" departSpeed="0.00" departDelay="17.00" arrival="58.00" arrivalLane="north_up_0" arrivalPos="91.95" arrivalSpeed="12.77" duration="25.00" routeLength="196.90" waitingTime="0.00" waitingCount="0" stopTime="0.00" timeLoss="10.12" rerouteNo="0" devices="tripinfo_veh_41" vType="1" speedFactor="0.96" vaporized=""/>
    <tripinfo id="veh_53" depart="34.00" departLane="north_down_0" departPos="10.10" departSpeed="0.00" departDelay="13.00" arrival="59.00" arrivalLane="south_down_0" arrivalPos="91.95" arrivalSpeed="13.61" duration="25.00" routeLength="189.90" waitingTime="0.00" waitingCount="0" stopTime="0.00" timeLoss="10.59" rerouteNo="0" devices="tripinfo_veh_53" vType="3" speedFactor="1.10" vaporized=""/>
    <tripinfo id="veh_45" depart="36.00" departLane="south_up_0" departPos="5.10" departSpeed="0.00" departDelay="19.00" arrival="60.00" arrivalLane="north_up_0" arrivalPos="91.95" arrivalSpeed="13.00" duration="24.00" routeLength="194.90" waitingTime="0.00" waitingCount="0" stopTime="0.00" timeLoss="9.61" rerouteNo="0" devices="tripinfo_veh_45" vType="0" speedFactor="1.09" vaporized=""/>
    <tripinfo id="veh_57" depart="37.00" departLane="north_down_0" departPos="3.10" departSpeed="0.00" departDelay="14.00" arrival="61.00" arrivalLane="south_down_0" arrivalPos="91.95" arrivalSpeed="13.60" duration="24.00" routeLength="196.90" waitingTime="0.00" waitingCount="0" stopTime="0.00" timeLoss="9.25" rerouteNo="0" devices="tripinfo_veh_57" vType="1" speedFactor="1.14" vaporized=""/>
    <tripinfo id="veh_47" depart="40.00" departLane="south_up_0" departPos="5.10" departSpeed="0.00" departDelay="22.00" arrival="62.00" arrivalLane="north_up_0" arrivalPos="91.95" arrivalSpeed="12.27" duration="22.00" routeLength="194.90" waitingTime="0.00" waitingCount="0" stopTime="0.00" timeLoss="6.05" rerouteNo="0" devices="tripinfo_veh_47" vType="0" speedFactor="0.90" vaporized=""/>
    <tripinfo id="veh_61" depart="39.00" departLane="north_down_0" departPos="3.10" departSpeed="0.00" departDelay="11.00" arrival="63.00" arrivalLane="south_down_0" arrivalPos="91.95" arrivalSpeed="13.98" duration="24.00" routeLength="196.90" waitingTime="0.00" waitingCount="0" stopTime="0.00" timeLoss="8.99" rerouteNo="0" devices="tripinfo_veh_61" vType="1" speedFactor="1.12" vaporized=""/>
    <tripinfo id="veh_73" depart="45.00" departLane="north_down_0" departPos="5.10" departSpeed="0.00" departDelay="8.00" arrival="63.00" arrivalLane="west_left_0" arrivalPos="91.95" arrivalSpeed="13.88" duration="18.00" routeLength="183.80" waitingTime="0.00" waitingCount="0" stopTime="0.00" timeLoss="4.56" rerouteNo="0" devices="tripinfo_veh_73" vType="0" speedFactor="1.06" vaporized=""/>
    <tripinfo id="veh_55" depart="46.00" departLane="south_up_0" departPos="3.10" departSpeed="0.00" departDelay="25.00" arrival="65.00" arrivalLane="east_right_0" arrivalPos="91.95" arrivalSpeed="13.45" duration="19.00" routeLength="185.80" waitingTime="0.00" waitingCount="0" stopTime="0.00" timeLoss="4.65" rerouteNo="0" devices="tripinfo_veh_55" vType="1" speedFactor="1.00" vaporized=""/>
    <tripinfo id="veh_77" depart="49.00" departLane="north_down_0" departPos="10.10" departSpeed="0.00" departDelay="9.00" arrival="67.00" arrivalLane="south_down_0" arrivalPos="91.95" arrivalSpeed="13.41" duration="18.00" routeLength="189.90" waitingTime="0.00" waitingCount="0" stopTime="0.00" timeLoss="3.95" rerouteNo="0" devices="tripinfo_veh_77" vType="3" speedFactor="0.98" vaporized=""/>
    <tripinfo id="veh_49" depart="32.00" departLane="north_down_0" departPos="4.10" departSpeed="0.00" departDelay="13.00" arrival="69.00" arrivalLane="east_right_1" arrivalPos="91.95" arrivalSpeed="11.23" duration="37.00" routeLength="195.44" waitingTime="11.00" waitingCount="1" stopTime="0.00" timeLoss="20.17" rerouteNo="0" devices="tripinfo_veh_49" vType="2" speedFactor="0.85" vaporized=""/>
    <tripinfo id="veh_65" depart="43.00" departLane="north_down_0" departPos="5.10" departSpeed="0.00" departDelay="14.00" arrival="71.00" arrivalLane="east_right_1" arrivalPos="91.95" arrivalSpeed="11.30" duration="28.00" routeLength="194.44" waitingTime="1.00" waitingCount="1" stopTime="0.00" timeLoss="11.71" rerouteNo="0" devices="tripinfo_veh_65" vType="0" speedFactor="0.88" vaporized=""/>
    <tripinfo id="veh_37" depart="31.00" departLane="south_up_0" departPos="10.10" departSpeed="0.00" departDelay="16.00" arrival="72.00" arrivalLane="west_left_1" arrivalPos="91.95" arrivalSpeed="13.30" duration="41.00" routeLength="189.44" waitingTime="15.00" waitingCount="1" stopTime="0.00" timeLoss="27.20" rerouteNo="0" devices="tripinfo_veh_37" vType="3" speedFactor="1.18" vaporized=""/>
    <tripinfo id="veh_2" depart="1.00" departLane="east_left_0" departPos="10.10" departSpeed="0.00" departDelay="0.00" arrival="74.00" arrivalLane="north_up_0" arrivalPos="91.95" arrivalSpeed="13.47" duration="73.00" routeLength="178.80" waitingTime="49.00" waitingCount="1" stopTime="0.00" timeLoss="60.13" rerouteNo="0" devices="tripinfo_veh_2" vType="3" speedFactor="1.01" vaporized=""/>
    <tripinfo id="veh_0" depart="1.00" departLane="west_right_0" departPos="4.10" departSpeed="0.00" departDelay="0.00" arrival="75.00" arrivalLane="south_down_0" arrivalPos="91.95" arrivalSpeed="13.25" duration="74.00" routeLength="184.80" waitingTime="49.00" waitingCount="1" stopTime="0.00" timeLoss="60.46" rerouteNo="0" devices="tripinfo_veh_0" vType="2" speedFactor="1.06" vaporized=""/>
    <tripinfo id="veh_4" depart="6.00" departLane="west_right_0" departPos="10.10" departSpeed="0.00" departDelay="4.00" arrival="78.00" arrivalLane="east_right_0" arrivalPos="91.95" arrivalSpeed="13.31" duration="72.00" routeLength="189.90" waitingTime="47.00" waitingCount="1" stopTime="0.00" timeLoss="57.53" rerouteNo="0" devices="tripinfo_veh_4" vType="3" speedFactor="1.03" vaporized=""/>
    <tripinfo id="veh_6" depart="5.00" departLane="east_left_0" departPos="10.10" departSpeed="0.00" departDelay="3.00" arrival="78.00" arrivalLane="west_left_0" arrivalPos="91.95" arrivalSpeed="13.21" duration="73.00" routeLength="189.90" waitingTime="47.00" waitingCount="1" stopTime="0.00" timeLoss="59.10" rerouteNo="0" devices="tripinfo_veh_6" vType="3" speedFactor="1.05" vaporized=""/>
    <tripinfo id="veh_8" depart="9.00" departLane="west_right_0" departPos="4.10" departSpeed="0.00" departDelay="6.00" arrival="80.00" arrivalLane="south_down_0" arrivalPos="91.95" arrivalSpeed="12.20" duration="71.00" routeLength="184.80" waitingTime="44.00" waitingCount="1" stopTime="0.00" timeLoss="55.93" rerouteNo="0" devices="tripinfo_veh_8" vType="2" speedFactor="0.94" vaporized=""/>
    <tripinfo id="veh_14" depart="11.00" departLane="east_left_0" departPos="4.10" departSpeed="0.00" departDelay="7.00" arrival="80.00" arrivalLane="north_up_0" arrivalPos="91.95" arrivalSpeed="12.94" duration="69.00" routeLength="184.80" waitingTime="41.00" waitingCount="1" stopTime="0.00" timeLoss="54.89" rerouteNo="0" devices="tripinfo_veh_14" vType="2" speedFactor="0.99" vaporized=""/>
    <tripinfo id="veh_12" depart="13.00" departLane="west_right_0" departPos="5.10" departSpeed="0.00" departDelay="9.00" arrival="82.00" arrivalLane="east_right_0" arrivalPos="91.95" arrivalSpeed="13.93" duration="69.00" routeLength="194.90" waitingTime="42.00" waitingCount="1" stopTime="0.00" timeLoss="54.31" rerouteNo="0" devices="tripinfo_veh_12" vType="0" speedFactor="1.05" vaporized=""/>
    <tripinfo id="veh_16" depart="14.00" departLane="east_left_0" departPos="5.10" departSpeed="0.00" departDelay="9.00" arrival="83.00" arrivalLane="west_left_0" arrivalPos="91.95" arrivalSpeed="11.69" duration="69.00" routeLength="194.90" waitingTime="41.00" waitingCount="1" stopTime="0.00" timeLoss="52.88" rerouteNo="0" devices="tripinfo_veh_16" vType="0" speedFactor="0.88" vaporized=""/>
    <tripinfo id="veh_18" depart="16.00" departLane="west_right_0" departPos="3.10" departSpeed="0.00" departDelay="8.00" arrival="83.00" arrivalLane="south_down_0" arrivalPos="91.95" arrivalSpeed="12.55" duration="67.00" routeLength="185.80" waitingTime="40.00" waitingCount="1" stopTime="0.00" timeLoss="52.20" rerouteNo="0" devices="tripinfo_veh_18" vType="1" speedFactor="0.94" vaporized=""/>
    <tripinfo id="veh_24" depart="20.00" departLane="east_left_0" departPos="5.10" departSpeed="0.00" departDelay="11.00" arrival="85.00" arrivalLane="north_up_0" arrivalPos="91.95" arrivalSpeed="11.39" duration="65.00" routeLength="183.80" waitingTime="38.00" waitingCount="1" stopTime="0.00" timeLoss="48.22" rerouteNo="0" devices="tripinfo_veh_24" vType="0" speedFactor="0.83" vaporized=""/>
    <tripinfo id="veh_22" depart="21.00" departLane="west_right_0" departPos="10.10" departSpeed="0.00" departDelay="12.00" arrival="86.00" arrivalLane="east_right_0" arrivalPos="91.95" arrivalSpeed="12.65" duration="65.00" routeLength="189.90" waitingTime="38.00" waitingCount="1" stopTime="0.00" timeLoss="50.28" rerouteNo="0" devices="tripinfo_veh_22" vType="3" speedFactor="0.98" vaporized=""/>
    <tripinfo id="veh_32" depart="25.00" departLane="east_left_0" departPos="10.10" departSpeed="0.00" departDelay="11.00" arrival="86.00" arrivalLane="west_left_0" arrivalPos="91.95" arrivalSpeed="13.74" duration="61.00" routeLength="189.90" waitingTime="35.00" waitingCount="1" stopTime="0.00" timeLoss="47.05" rerouteNo="0" devices="tripinfo_veh_32" vType="3" speedFactor="1.01" vaporized=""/>
    <tripinfo id="veh_26" depart="25.00" departLane="west_right_0" departPos="10.10" departSpeed="0.00" departDelay="13.00" arrival="89.00" arrivalLane="east_right_0" arrivalPos="91.95" arrivalSpeed="11.89" duration="64.00" routeLength="189.90" waitingTime="37.00" waitingCount="1" stopTime="0.00" timeLoss="48.33" rerouteNo="0" devices="tripinfo_veh_26" vType="3" speedFactor="0.92" vaporized=""/>
    <tripinfo id="veh_36" depart="30.00" departLane="east_left_0" departPos="10.10" departSpeed="0.00" departDelay="15.00" arrival="89.00" arrivalLane="west_left_0" arrivalPos="91.95" arrivalSpeed="13.47" duration="59.00" routeLength="189.90" waitingTime="32.00" waitingCount="1" stopTime="0.00" timeLoss="44.02" rerouteNo="0" devices="tripinfo_veh_36" vType="3" speedFactor="0.97" vaporized=""/>
    <tripinfo id="veh_10" depart="8.00" departLane="east_left_0" departPos="3.10" departSpeed="0.00" departDelay="5.00" arrival="92.00" arrivalLane="south_down_1" arrivalPos="91.95" arrivalSpeed="13.68" duration="84.00" routeLength="196.44" waitingTime="55.00" waitingCount="2" stopTime="0.00" timeLoss="69.85" rerouteNo="0" devices="tripinfo_veh_10" vType="1" speedFactor="1.09" vaporized=""/>
    <tripinfo id="veh_20" depart="17.00" departLane="east_left_0" departPos="4.10" departSpeed="0.00" departDelay="9.00" arrival="94.00" arrivalLane="south_down_1" arrivalPos="91.95" arrivalSpeed="13.45" duration="77.00" routeLength="195.44" waitingTime="47.00" waitingCount="2" stopTime="0.00" timeLoss="62.55" rerouteNo="0" devices="tripinfo_veh_20" vType="2" speedFactor="1.02" vaporized=""/>
    <tripinfo id="veh_42" depart="37.00" departLane="west_right_0" departPos="4.10" departSpeed="0.00" departDelay="20.00" arrival="94.00" arrivalLane="north_up_1" arrivalPos="91.95" arrivalSpeed="13.82" duration="57.00" routeLength="195.44" waitingTime="26.00" waitingCount="3" stopTime="0.00" timeLoss="42.11" rerouteNo="0" devices="tripinfo_veh_42" vType="2" speedFactor="1.09" vaporized=""/>
    <tripinfo id="veh_59" depart="49.00" departLane="south_up_0" departPos="3.10" departSpeed="0.00" departDelay="26.00" arrival="95.00" arrivalLane="east_right_0" arrivalPos="91.95" arrivalSpeed="12.48" duration="46.00" routeLength="185.80" waitingTime="22.00" waitingCount="1" stopTime="0.00" timeLoss="32.00" rerouteNo="0" devices="tripinfo_veh_59" vType="1" speedFactor="0.97" vaporized=""/>
    <tripinfo id="veh_89" depart="58.00" departLane="north_down_0" departPos="3.10" departSpeed="0.00" departDelay="15.00" arrival="97.00" arrivalLane="west_left_0" arrivalPos="91.95" arrivalSpeed="13.44" duration="39.00" routeLength="185.80" waitingTime="13.00" waitingCount="1" stopTime="0.00" timeLoss="24.98" rerouteNo="0" devices="tripinfo_veh_89" vType="1" speedFactor="1.02" vaporized=""/>
    <tripinfo id="veh_63" depart="52.00" departLane="south_up_0" departPos="3.10" departSpeed="0.00" departDelay="24.00" arrival="98.00" arrivalLane="east_right_0" arrivalPos="91.95" arrivalSpeed="13.21" duration="46.00" routeLength="185.80" waitingTime="21.00" waitingCount="1" stopTime="0.00" timeLoss="32.11" rerouteNo="0" devices="tripinfo_veh_63" vType="1" speedFactor="0.99" vaporized=""/>
    <tripinfo id="veh_97" depart="63.00" departLane="north_down_0" departPos="10.10" departSpeed="0.00" departDelay="15.00" arrival="99.00" arrivalLane="west_left_0" arrivalPos="91.95" arrivalSpeed="11.60" duration="36.00" routeLength="178.80" waitingTime="10.00" waitingCount="1" stopTime="0.00" timeLoss="21.14" rerouteNo="0" devices="tripinfo_veh_97" vType="3" speedFactor="0.91" vaporized=""/>
    <tripinfo id="veh_51" depart="43.00" departLane="south_up_0" departPos="3.10" departSpeed="0.00" departDelay="24.00" arrival="100.00" arrivalLane="west_left_1" arrivalPos="91.95" arrivalSpeed="13.43" duration="57.00" routeLength="196.44" waitingTime="26.00" waitingCount="2" stopTime="0.00" timeLoss="42.84" rerouteNo="0" devices="tripinfo_veh_51" vType="1" speedFactor="1.17" vaporized=""/>
    <tripinfo id="veh_67" depart="56.00" departLane="south_up_0" departPos="10.10" departSpeed="0.00" departDelay="27.00" arrival="100.00" arrivalLane="east_right_0" arrivalPos="91.95" arrivalSpeed="12.52" duration="44.00" routeLength="178.80" waitingTime="19.00" waitingCount="1" stopTime="0.00" timeLoss="29.58" rerouteNo="0" devices="tripinfo_veh_67" vType="3" speedFactor="0.91" vaporized=""/>
    <tripinfo id="veh_101" depart="66.00" departLane="north_down_0" departPos="3.10" departSpeed="0.00" departDelay="16.00" arrival="101.00" arrivalLane="west_left_0" arrivalPos="91.95" arrivalSpeed="13.11" duration="35.00" routeLength="185.80" waitingTime="7.00" waitingCount="1" stopTime="0.00" timeLoss="20.44" rerouteNo="0" devices="tripinfo_veh_101" vType="1" speedFactor="0.96" vaporized=""/>
    <tripinfo id="veh_69" depart="59.00" departLane="south_up_0" departPos="5.10" departSpeed="0.00" departDelay="29.00" arrival="102.00" arrivalLane="east_right_0" arrivalPos="91.95" arrivalSpeed="13.36" duration="43.00" routeLength="183.80" waitingTime="17.00" waitingCount="1" stopTime="0.00" timeLoss="29.85" rerouteNo="0" devices="tripinfo_veh_69" vType="0" speedFactor="1.02" vaporized=""/>
    <tripinfo id="veh_105" depart="71.00" departLane="north_down_0" departPos="10.10" departSpeed="0.00" departDelay="18.00" arrival="103.00" arrivalLane="south_down_0" arrivalPos="91.95" arrivalSpeed="13.90" duration="32.00" routeLength="189.90" waitingTime="6.00" waitingCount="1" stopTime="0.00" timeLoss="17.88" rerouteNo="0" devices="tripinfo_veh_105" vType="3" speedFactor="1.07" vaporized=""/>
    <tripinfo id="veh_71" depart="62.00" departLane="south_up_0" departPos="3.10" departSpeed="0.00" departDelay="26.00" arrival="104.00" arrivalLane="east_right_0" arrivalPos="91.95" arrivalSpeed="13.25" duration="42.00" routeLength="185.80" waitingTime="15.00" waitingCount="1" stopTime="0.00" timeLoss="27.92" rerouteNo="0" devices="tripinfo_veh_71" vType="1" speedFactor="0.97" vaporized=""/>
    <tripinfo id="veh_109" depart="73.00" departLane="north_down_0" departPos="3.10" departSpeed="0.00" departDelay="19.00" arrival="105.00" arrivalLane="west_left_0" arrivalPos="91.95" arrivalSpeed="12.71" duration="32.00" routeLength="185.80" waitingTime="5.00" waitingCount="2" stopTime="0.00" timeLoss="17.45" rerouteNo="0" devices="tripinfo_veh_109" vType="1" speedFactor="0.96" vaporized=""/>
    <tripinfo id="veh_75" depart="65.00" departLane="south_up_0" departPos="3.10" departSpeed="0.00" departDelay="28.00" arrival="106.00" arrivalLane="east_right_0" arrivalPos="91.95" arrivalSpeed="13.40" duration="41.00" routeLength="185.80" waitingTime="14.00" waitingCount="1" stopTime="0.00" timeLoss="26.73" rerouteNo="0" devices="tripinfo_veh_75" vType="1" speedFactor="0.98" vaporized=""/>
    <tripinfo id="veh_113" depart="77.00" departLane="north_down_0" departPos="4.10" departSpeed="0.00" departDelay="21.00" arrival="107.00" arrivalLane="south_down_0" arrivalPos="91.95" arrivalSpeed="13.37" duration="30.00" routeLength="195.90" waitingTime="2.00" waitingCount="1" stopTime="0.00" timeLoss="15.35" rerouteNo="0" devices="tripinfo_veh_113" vType="2" speedFactor="1.01" vaporized=""/>
    <tripinfo id="veh_117" depart="81.00" departLane="north_down_0" departPos="10.10" departSpeed="0.00" departDelay="24.00" arrival="107.00" arrivalLane="west_left_0" arrivalPos="91.95" arrivalSpeed="13.55" duration="26.00" routeLength="178.80" waitingTime="1.00" waitingCount="1" stopTime="0.00" timeLoss="13.12" rerouteNo="0" devices="tripinfo_veh_117" vType="3" speedFactor="1.00" vaporized=""/>
    <tripinfo id="veh_79" depart="68.00" departLane="south_up_0" departPos="5.10" departSpeed="0.00" departDelay="28.00" arrival="108.00" arrivalLane="north_up_0" arrivalPos="91.95" arrivalSpeed="13.38" duration="40.00" routeLength="194.90" waitingTime="13.00" waitingCount="1" stopTime="0.00" timeLoss="25.43" rerouteNo="0" devices="tripinfo_veh_79" vType="0" speedFactor="1.09" vaporized=""/>
    <tripinfo id="veh_83" depart="71.00" departLane="south_up_0" departPos="4.10" departSpeed="0.00" departDelay="30.00" arrival="110.00" arrivalLane="north_up_0" arrivalPos="91.95" arrivalSpeed="12.68" duration="39.00" routeLength="195.90" waitingTime="10.00" waitingCount="1" stopTime="0.00" timeLoss="23.96" rerouteNo="0" devices="tripinfo_veh_83" vType="2" speedFactor="0.97" vaporized=""/>
    <tripinfo id="veh_91" depart="77.00" departLane="south_up_0" departPos="3.10" departSpeed="0.00" departDelay="34.00" arrival="113.00" arrivalLane="west_left_1" arrivalPos="91.95" arrivalSpeed="12.07" duration="36.00" routeLength="196.44" waitingTime="7.00" waitingCount="1" stopTime="0.00" timeLoss="19.34" rerouteNo="0" devices="tripinfo_veh_91" vType="1" speedFactor="0.89" vaporized=""/>
    <tripinfo id="veh_95" depart="80.00" departLane="south_up_0" departPos="5.10" departSpeed="0.00" departDelay="34.00" arrival="114.00" arrivalLane="west_left_1" arrivalPos="91.95" arrivalSpeed="13.92" duration="34.00" routeLength="194.44" waitingTime="7.00" waitingCount="1" stopTime="0.00" timeLoss="19.82" rerouteNo="0" devices="tripinfo_veh_95" vType="0" speedFactor="1.06" vaporized=""/>
    <tripinfo id="veh_81" depart="52.00" departLane="north_down_0" departPos="5.10" departSpeed="0.00" departDelay="11.00" arrival="115.00" arrivalLane="east_right_1" arrivalPos="91.95" arrivalSpeed="13.24" duration="63.00" routeLength="194.44" waitingTime="31.00" waitingCount="2" stopTime="0.00" timeLoss="48.16" rerouteNo="0" devices="tripinfo_veh_81" vType="0" speedFactor="1.00" vaporized=""/>
    <tripinfo id="veh_40" depart="33.00" departLane="east_left_0" departPos="4.10" departSpeed="0.00" departDelay="17.00" arrival="117.00" arrivalLane="north_up_0" arrivalPos="91.95" arrivalSpeed="13.88" duration="84.00" routeLength="184.80" waitingTime="52.00" waitingCount="2" stopTime="0.00" timeLoss="70.47" rerouteNo="0" devices="tripinfo_veh_40" vType="2" speedFactor="1.03" vaporized=""/>
    <tripinfo id="veh_85" depart="55.00" departLane="north_down_0" departPos="4.10" departSpeed="0.00" departDelay="13.00" arrival="117.00" arrivalLane="east_right_1" arrivalPos="91.95" arrivalSpeed="12.93" duration="62.00" routeLength="195.44" waitingTime="28.00" waitingCount="2" stopTime="0.00" timeLoss="46.72" rerouteNo="0" devices="tripinfo_veh_85" vType="2" speedFactor="0.98" vaporized=""/>
    <tripinfo id="veh_30" depart="28.00" departLane="west_right_0" departPos="5.10" departSpeed="0.00" departDelay="14.00" arrival="118.00" arrivalLane="east_right_0" arrivalPos="91.95" arrivalSpeed="13.02" duration="90.00" routeLength="194.90" waitingTime="55.00" waitingCount="2" stopTime="0.00" timeLoss="75.55" rerouteNo="0" devices="tripinfo_veh_30" vType="0" speedFactor="1.18" vaporized=""/>
    <tripinfo id="veh_34" depart="31.00" departLane="west_right_0" departPos="3.10" departSpeed="0.00" departDelay="16.00" arrival="120.00" arrivalLane="east_right_0" arrivalPos="91.95" arrivalSpeed="12.95" duration="89.00" routeLength="196.90" waitingTime="56.00" waitingCount="2" stopTime="0.00" timeLoss="74.16" rerouteNo="0" devices="tripinfo_veh_34" vType="1" speedFactor="0.99" vaporized=""/>