<?xml version="1.0" encoding="UTF-8"?>

<!-- generated on 2022-01-24 11:25:55 by Eclipse SUMO sumo Version 1.10.0
<configuration xmlns:xsi="http://www.w3.org/2001/XMLSchema-instance" xsi:noNamespaceSchemaLocation="http://sumo.dlr.de/xsd/sumoConfiguration.xsd">

    <input>
        <net-file value="intersection.net.xml"/>
        <route-files value="live_routes/data1640280023.2632737.rou.xml"/>
    </input>

    <output>
        <tripinfo-output value="timed/timed-tripinfo.xml"/>
        <tripinfo-output.write-unfinished value="true"/>
    </output>

    <time>
        <begin value="0"/>
    </time>

    <processing>
        <time-to-teleport value="-1"/>
        <waiting-time-memory value="1000"/>
    </processing>

    <report>
        <verbose value="true"/>
        <error-log value="error.log.xml"/>
        <duration-log.statistics value="true"/>
        <no-step-log value="false"/>
    </report>

    <traci_server>
        <remote-port value="50319"/>
    </traci_server>

</configuration>
-->

<tripinfos xmlns:xsi="http://www.w3.org/2001/XMLSchema-instance" xsi:noNamespaceSchemaLocation="http://sumo.dlr.de/xsd/tripinfo_file.xsd">
    <tripinfo id="veh_3" depart="5.00" departLane="south_up_0" departPos="3.10" departSpeed="0.00" departDelay="0.00" arrival="23.00" arrivalLane="east_right_0" arrivalPos="91.95" arrivalSpeed="13.70" duration="18.00" routeLength="185.80" waitingTime="0.00" waitingCount="0" stopTime="0.00" timeLoss="4.25" rerouteNo="0" devices="tripinfo_veh_3" vType="1" speedFactor="1.08" vaporized=""/>
    <tripinfo id="veh_1" depart="5.00" departLane="north_down_0" departPos="3.10" departSpeed="0.00" departDelay="0.00" arrival="26.00" arrivalLane="east_right_1" arrivalPos="91.95" arrivalSpeed="12.95" duration="21.00" routeLength="196.44" waitingTime="0.00" waitingCount="0" stopTime="0.00" timeLoss="5.91" rerouteNo="0" devices="tripinfo_veh_1" vType="1" speedFactor="0.94" vaporized=""/>
    <tripinfo id="veh_5" depart="8.00" departLane="north_down_0" departPos="10.10" departSpeed="0.00" departDelay="1.00" arrival="28.00" arrivalLane="south_down_0" arrivalPos="91.95" arrivalSpeed="11.19" duration="20.00" routeLength="189.90" waitingTime="0.00" waitingCount="0" stopTime="0.00" timeLoss="3.38" rerouteNo="0" devices="tripinfo_veh_5" vType="3" speedFactor="0.83" vaporized=""/>
    <tripinfo id="veh_7" depart="8.00" departLane="south_up_0" departPos="5.10" departSpeed="0.00" departDelay="1.00" arrival="28.00" arrivalLane="east_right_0" arrivalPos="91.95" arrivalSpeed="11.43" duration="20.00" routeLength="183.80" waitingTime="0.00" waitingCount="0" stopTime="0.00" timeLoss="4.95" rerouteNo="0" devices="tripinfo_veh_7" vType="0" speedFactor="0.89" vaporized=""/>
    <tripinfo id="veh_9" depart="11.00" departLane="north_down_0" departPos="5.10" departSpeed="0.00" departDelay="3.00" arrival="31.00" arrivalLane="south_down_0" arrivalPos="91.95" arrivalSpeed="11.15" duration="20.00" routeLength="194.90" waitingTime="0.00" waitingCount="0" stopTime="0.00" timeLoss="3.52" rerouteNo="0" devices="tripinfo_veh_9" vType="0" speedFactor="0.86" vaporized=""/>
    <tripinfo id="veh_11" depart="13.00" departLane="south_up_0" departPos="10.10" departSpeed="0.00" departDelay="5.00" arrival="31.00" arrivalLane="north_up_0" arrivalPos="91.95" arrivalSpeed="13.47" duration="18.00" routeLength="189.90" waitingTime="0.00" waitingCount="0" stopTime="0.00" timeLoss="4.36" rerouteNo="0" devices="tripinfo_veh_11" vType="3" speedFactor="1.03" vaporized=""/>
    <tripinfo id="veh_13" depart="13.00" departLane="north_down_0" departPos="3.10" departSpeed="0.00" departDelay="4.00" arrival="32.00" arrivalLane="west_left_0" arrivalPos="91.95" arrivalSpeed="13.76" duration="19.00" routeLength="185.80" waitingTime="1.00" waitingCount="1" stopTime="0.00" timeLoss="4.89" rerouteNo="0" devices="tripinfo_veh_13" vType="1" speedFactor="1.12" vaporized=""/>
    <tripinfo id="veh_15" depart="16.00" departLane="south_up_0" departPos="3.10" departSpeed="0.00" departDelay="7.00" arrival="36.00" arrivalLane="north_up_0" arrivalPos="91.95" arrivalSpeed="11.99" duration="20.00" routeLength="196.90" waitingTime="0.00" waitingCount="0" stopTime="0.00" timeLoss="4.13" rerouteNo="0" devices="tripinfo_veh_15" vType="1" speedFactor="0.93" vaporized=""/>
    <tripinfo id="veh_17" depart="26.00" departLane="north_down_0" departPos="3.10" departSpeed="0.00" departDelay="0.00" arrival="45.00" arrivalLane="west_left_0" arrivalPos="91.95" arrivalSpeed="12.86" duration="19.00" routeLength="185.80" waitingTime="0.00" waitingCount="0" stopTime="0.00" timeLoss="4.75" rerouteNo="0" devices="tripinfo_veh_17" vType="1" speedFactor="0.94" vaporized=""/>
    <tripinfo id="veh_19" depart="26.00" departLane="south_up_0" departPos="3.10" departSpeed="0.00" departDelay="0.00" arrival="48.00" arrivalLane="west_left_1" arrivalPos="91.95" arrivalSpeed="13.76" duration="22.00" routeLength="196.44" waitingTime="0.00" waitingCount="0" stopTime="0.00" timeLoss="7.12" rerouteNo="0" devices="tripinfo_veh_19" vType="1" speedFactor="1.16" vaporized=""/>
    <tripinfo id="veh_21" depart="29.00" departLane="north_down_0" departPos="5.10" departSpeed="0.00" departDelay="2.00" arrival="49.00" arrivalLane="south_down_0" arrivalPos="91.95" arrivalSpeed="13.27" duration="20.00" routeLength="194.90" waitingTime="0.00" waitingCount="0" stopTime="0.00" timeLoss="5.68" rerouteNo="0" devices="tripinfo_veh_21" vType="0" speedFactor="1.01" vaporized=""/>
    <tripinfo id="veh_23" depart="29.00" departLane="south_up_0" departPos="10.10" departSpeed="0.00" departDelay="2.00" arrival="49.00" arrivalLane="north_up_0" arrivalPos="91.95" arrivalSpeed="11.75" duration="20.00" routeLength="189.90" waitingTime="0.00" waitingCount="0" stopTime="0.00" timeLoss="4.06" rerouteNo="0" devices="tripinfo_veh_23" vType="3" speedFactor="0.89" vaporized=""/>
    <tripinfo id="veh_27" depart="32.00" departLane="south_up_0" departPos="3.10" departSpeed="0.00" departDelay="3.00" arrival="52.00" arrivalLane="north_up_0" arrivalPos="91.95" arrivalSpeed="12.31" duration="20.00" routeLength="196.90" waitingTime="0.00" waitingCount="0" stopTime="0.00" timeLoss="4.71" rerouteNo="0" devices="tripinfo_veh_27" vType="1" speedFactor="0.95" vaporized=""/>
    <tripinfo id="veh_25" depart="33.00" departLane="north_down_0" departPos="5.10" departSpeed="0.00" departDelay="4.00" arrival="53.00" arrivalLane="south_down_0" arrivalPos="91.95" arrivalSpeed="11.16" duration="20.00" routeLength="194.90" waitingTime="0.00" waitingCount="0" stopTime="0.00" timeLoss="3.76" rerouteNo="0" devices="tripinfo_veh_25" vType="0" speedFactor="0.87" vaporized=""/>
    <tripinfo id="veh_29" depart="37.00" departLane="north_down_0" departPos="10.10" departSpeed="0.00" departDelay="7.00" arrival="56.00" arrivalLane="south_down_0" arrivalPos="91.95" arrivalSpeed="12.92" duration="19.00" routeLength="189.90" waitingTime="0.00" waitingCount="0" stopTime="0.00" timeLoss="4.22" rerouteNo="0" devices="tripinfo_veh_29" vType="3" speedFactor="0.93" vaporized=""/>
    <tripinfo id="veh_31" depart="35.00" departLane="south_up_0" departPos="3.10" departSpeed="0.00" departDelay="5.00" arrival="60.00" arrivalLane="west_left_1" arrivalPos="91.95" arrivalSpeed="13.83" duration="25.00" routeLength="196.44" waitingTime="0.00" waitingCount="0" stopTime="0.00" timeLoss="10.95" rerouteNo="0" devices="tripinfo_veh_31" vType="1" speedFactor="1.15" vaporized=""/>
    <tripinfo id="veh_33" depart="42.00" departLane="north_down_0" departPos="3.10" departSpeed="0.00" departDelay="0.00" arrival="60.00" arrivalLane="west_left_0" arrivalPos="91.95" arrivalSpeed="13.62" duration="18.00" routeLength="185.80" waitingTime="0.00" waitingCount="0" stopTime="0.00" timeLoss="4.61" rerouteNo="0" devices="tripinfo_veh_33" vType="1" speedFactor="1.17" vaporized=""/>
    <tripinfo id="veh_37" depart="45.00" departLane="north_down_0" departPos="3.10" departSpeed="0.00" departDelay="2.00" arrival="64.00" arrivalLane="south_down_0" arrivalPos="91.95" arrivalSpeed="13.72" duration="19.00" routeLength="196.90" waitingTime="0.00" waitingCount="0" stopTime="0.00" timeLoss="4.37" rerouteNo="0" devices="tripinfo_veh_37" vType="1" speedFactor="1.18" vaporized=""/>
    <tripinfo id="veh_43" depart="47.00" departLane="south_up_0" departPos="4.10" departSpeed="0.00" departDelay="3.00" arrival="66.00" arrivalLane="north_up_0" arrivalPos="91.95" arrivalSpeed="13.04" duration="19.00" routeLength="195.90" waitingTime="0.00" waitingCount="0" stopTime="0.00" timeLoss="4.53" rerouteNo="0" devices="tripinfo_veh_43" vType="2" speedFactor="1.04" vaporized=""/>
    <tripinfo id="veh_41" depart="48.00" departLane="north_down_0" departPos="4.10" departSpeed="0.00" departDelay="4.00" arrival="67.00" arrivalLane="west_left_0" arrivalPos="91.95" arrivalSpeed="12.92" duration="19.00" routeLength="184.80" waitingTime="0.00" waitingCount="0" stopTime="0.00" timeLoss="4.80" rerouteNo="0" devices="tripinfo_veh_41" vType="2" speedFactor="0.96" vaporized=""/>
    <tripinfo id="veh_47" depart="50.00" departLane="south_up_0" departPos="3.10" departSpeed="0.00" departDelay="5.00" arrival="71.00" arrivalLane="north_up_0" arrivalPos="91.95" arrivalSpeed="11.51" duration="21.00" routeLength="196.90" waitingTime="0.00" waitingCount="0" stopTime="0.00" timeLoss="4.47" rerouteNo="0" devices="tripinfo_veh_47" vType="1" speedFactor="0.90" vaporized=""/>
    <tripinfo id="veh_51" depart="53.00" departLane="south_up_0" departPos="5.10" departSpeed="0.00" departDelay="6.00" arrival="71.00" arrivalLane="east_right_0" arrivalPos="91.95" arrivalSpeed="13.51" duration="18.00" routeLength="183.80" waitingTime="0.00" waitingCount="0" stopTime="0.00" timeLoss="4.78" rerouteNo="0" devices="tripinfo_veh_51" vType="0" speedFactor="1.17" vaporized=""/>
    <tripinfo id="veh_35" depart="42.00" departLane="south_up_0" departPos="5.10" departSpeed="0.00" departDelay="0.00" arrival="72.00" arrivalLane="west_left_1" arrivalPos="91.95" arrivalSpeed="13.71" duration="30.00" routeLength="194.44" waitingTime="4.00" waitingCount="1" stopTime="0.00" timeLoss="15.70" rerouteNo="0" devices="tripinfo_veh_35" vType="0" speedFactor="1.02" vaporized=""/>
    <tripinfo id="veh_45" depart="52.00" departLane="north_down_0" departPos="4.10" departSpeed="0.00" departDelay="7.00" arrival="73.00" arrivalLane="east_right_1" arrivalPos="91.95" arrivalSpeed="13.60" duration="21.00" routeLength="195.44" waitingTime="0.00" waitingCount="0" stopTime="0.00" timeLoss="6.34" rerouteNo="0" devices="tripinfo_veh_45" vType="2" speedFactor="1.09" vaporized=""/>
    <tripinfo id="veh_39" depart="45.00" departLane="south_up_0" departPos="4.10" departSpeed="0.00" departDelay="2.00" arrival="74.00" arrivalLane="west_left_1" arrivalPos="91.95" arrivalSpeed="11.86" duration="29.00" routeLength="195.44" waitingTime="2.00" waitingCount="1" stopTime="0.00" timeLoss="13.11" rerouteNo="0" devices="tripinfo_veh_39" vType="2" speedFactor="0.90" vaporized=""/>
    <tripinfo id="veh_2" depart="5.00" departLane="east_left_0" departPos="3.10" departSpeed="0.00" departDelay="0.00" arrival="81.00" arrivalLane="west_left_0" arrivalPos="91.95" arrivalSpeed="13.27" duration="76.00" routeLength="196.90" waitingTime="52.00" waitingCount="1" stopTime="0.00" timeLoss="61.67" rerouteNo="0" devices="tripinfo_veh_2" vType="1" speedFactor="1.01" vaporized=""/>
    <tripinfo id="veh_4" depart="8.00" departLane="west_right_0" departPos="4.10" departSpeed="0.00" departDelay="1.00" arrival="81.00" arrivalLane="south_down_0" arrivalPos="91.95" arrivalSpeed="13.84" duration="73.00" routeLength="184.80" waitingTime="48.00" waitingCount="1" stopTime="0.00" timeLoss="59.10" rerouteNo="0" devices="tripinfo_veh_4" vType="2" speedFactor="1.03" vaporized=""/>
    <tripinfo id="veh_6" depart="8.00" departLane="east_left_0" departPos="3.10" departSpeed="0.00" departDelay="1.00" arrival="82.00" arrivalLane="north_up_0" arrivalPos="91.95" arrivalSpeed="13.86" duration="74.00" routeLength="185.80" waitingTime="49.00" waitingCount="1" stopTime="0.00" timeLoss="60.41" rerouteNo="0" devices="tripinfo_veh_6" vType="1" speedFactor="1.05" vaporized=""/>
    <tripinfo id="veh_8" depart="12.00" departLane="west_right_0" departPos="10.10" departSpeed="0.00" departDelay="4.00" arrival="83.00" arrivalLane="south_down_0" arrivalPos="91.95" arrivalSpeed="12.57" duration="71.00" routeLength="178.80" waitingTime="44.00" waitingCount="1" stopTime="0.00" timeLoss="56.85" rerouteNo="0" devices="tripinfo_veh_8" vType="3" speedFactor="0.94" vaporized=""/>
    <tripinfo id="veh_14" depart="14.00" departLane="east_left_0" departPos="3.10" departSpeed="0.00" departDelay="5.00" arrival="84.00" arrivalLane="north_up_0" arrivalPos="91.95" arrivalSpeed="13.28" duration="70.00" routeLength="185.80" waitingTime="45.00" waitingCount="1" stopTime="0.00" timeLoss="56.04" rerouteNo="0" devices="tripinfo_veh_14" vType="1" speedFactor="0.99" vaporized=""/>
    <tripinfo id="veh_24" depart="30.00" departLane="west_right_0" departPos="10.10" departSpeed="0.00" departDelay="1.00" arrival="86.00" arrivalLane="south_down_0" arrivalPos="91.95" arrivalSpeed="11.08" duration="56.00" routeLength="178.80" waitingTime="31.00" waitingCount="1" stopTime="0.00" timeLoss="40.42" rerouteNo="0" devices="tripinfo_veh_24" vType="3" speedFactor="0.83" vaporized=""/>
    <tripinfo id="veh_18" depart="26.00" departLane="east_left_0" departPos="5.10" departSpeed="0.00" departDelay="0.00" arrival="87.00" arrivalLane="west_left_0" arrivalPos="91.95" arrivalSpeed="12.37" duration="61.00" routeLength="194.90" waitingTime="35.00" waitingCount="1" stopTime="0.00" timeLoss="45.71" rerouteNo="0" devices="tripinfo_veh_18" vType="0" speedFactor="0.94" vaporized=""/>
    <tripinfo id="veh_28" depart="33.00" departLane="west_right_0" departPos="5.10" departSpeed="0.00" departDelay="3.00" arrival="88.00" arrivalLane="east_right_0" arrivalPos="91.95" arrivalSpeed="13.36" duration="55.00" routeLength="194.90" waitingTime="27.00" waitingCount="1" stopTime="0.00" timeLoss="40.98" rerouteNo="0" devices="tripinfo_veh_28" vType="0" speedFactor="1.13" vaporized=""/>
    <tripinfo id="veh_22" depart="29.00" departLane="east_left_0" departPos="3.10" departSpeed="0.00" departDelay="2.00" arrival="89.00" arrivalLane="west_left_0" arrivalPos="91.95" arrivalSpeed="13.31" duration="60.00" routeLength="196.90" waitingTime="32.00" waitingCount="1" stopTime="0.00" timeLoss="45.07" rerouteNo="0" devices="tripinfo_veh_22" vType="1" speedFactor="0.98" vaporized=""/>
    <tripinfo id="veh_26" depart="33.00" departLane="east_left_0" departPos="10.10" departSpeed="0.00" departDelay="4.00" arrival="91.00" arrivalLane="west_left_0" arrivalPos="91.95" arrivalSpeed="12.52" duration="58.00" routeLength="189.90" waitingTime="30.00" waitingCount="1" stopTime="0.00" timeLoss="42.81" rerouteNo="0" devices="tripinfo_veh_26" vType="3" speedFactor="0.92" vaporized=""/>
    <tripinfo id="veh_36" depart="44.00" departLane="west_right_0" departPos="10.10" departSpeed="0.00" departDelay="1.00" arrival="91.00" arrivalLane="east_right_0" arrivalPos="91.95" arrivalSpeed="12.92" duration="47.00" routeLength="189.90" waitingTime="20.00" waitingCount="1" stopTime="0.00" timeLoss="32.44" rerouteNo="0" devices="tripinfo_veh_36" vType="3" speedFactor="0.97" vaporized=""/>
    <tripinfo id="veh_30" depart="36.00" departLane="east_left_0" departPos="3.10" departSpeed="0.00" departDelay="6.00" arrival="93.00" arrivalLane="west_left_0" arrivalPos="91.95" arrivalSpeed="13.73" duration="57.00" routeLength="196.90" waitingTime="29.00" waitingCount="1" stopTime="0.00" timeLoss="42.71" rerouteNo="0" devices="tripinfo_veh_30" vType="1" speedFactor="1.18" vaporized=""/>
    <tripinfo id="veh_40" depart="48.00" departLane="west_right_0" departPos="10.10" departSpeed="0.00" departDelay="4.00" arrival="93.00" arrivalLane="east_right_0" arrivalPos="91.95" arrivalSpeed="13.50" duration="45.00" routeLength="189.90" waitingTime="18.00" waitingCount="1" stopTime="0.00" timeLoss="30.97" rerouteNo="0" devices="tripinfo_veh_40" vType="3" speedFactor="1.03" vaporized=""/>
    <tripinfo id="veh_34" depart="42.00" departLane="east_left_0" departPos="4.10" departSpeed="0.00" departDelay="0.00" arrival="95.00" arrivalLane="west_left_0" arrivalPos="91.95" arrivalSpeed="13.65" duration="53.00" routeLength="195.90" waitingTime="26.00" waitingCount="1" stopTime="0.00" timeLoss="38.15" rerouteNo="0" devices="tripinfo_veh_34" vType="2" speedFactor="0.99" vaporized=""/>
    <tripinfo id="veh_48" depart="53.00" departLane="west_right_0" departPos="3.10" departSpeed="0.00" departDelay="6.00" arrival="95.00" arrivalLane="south_down_0" arrivalPos="91.95" arrivalSpeed="11.97" duration="42.00" routeLength="185.80" waitingTime="14.00" waitingCount="1" stopTime="0.00" timeLoss="26.57" rerouteNo="0" devices="tripinfo_veh_48" vType="1" speedFactor="0.88" vaporized=""/>
    <tripinfo id="veh_38" depart="46.00" departLane="east_left_0" departPos="10.10" departSpeed="0.00" departDelay="3.00" arrival="96.00" arrivalLane="west_left_0" arrivalPos="91.95" arrivalSpeed="13.55" duration="50.00" routeLength="189.90" waitingTime="25.00" waitingCount="1" stopTime="0.00" timeLoss="36.38" rerouteNo="0" devices="tripinfo_veh_38" vType="3" speedFactor="1.10" vaporized=""/>
    <tripinfo id="veh_42" depart="50.00" departLane="east_left_0" departPos="10.10" departSpeed="0.00" departDelay="6.00" arrival="97.00" arrivalLane="north_up_0" arrivalPos="91.95" arrivalSpeed="13.92" duration="47.00" routeLength="178.80" waitingTime="23.00" waitingCount="1" stopTime="0.00" timeLoss="34.05" rerouteNo="0" devices="tripinfo_veh_42" vType="3" speedFactor="1.09" vaporized=""/>
    <tripinfo id="veh_52" depart="56.00" departLane="west_right_0" departPos="5.10" departSpeed="0.00" departDelay="8.00" arrival="97.00" arrivalLane="south_down_0" arrivalPos="91.95" arrivalSpeed="13.50" duration="41.00" routeLength="183.80" waitingTime="13.00" waitingCount="1" stopTime="0.00" timeLoss="27.10" rerouteNo="0" devices="tripinfo_veh_52" vType="0" speedFactor="1.02" vaporized=""/>
    <tripinfo id="veh_60" depart="60.00" departLane="west_right_0" departPos="4.10" departSpeed="0.00" departDelay="9.00" arrival="98.00" arrivalLane="south_down_0" arrivalPos="91.95" arrivalSpeed="13.57" duration="38.00" routeLength="184.80" waitingTime="13.00" waitingCount="1" stopTime="0.00" timeLoss="24.73" rerouteNo="0" devices="tripinfo_veh_60" vType="2" speedFactor="1.08" vaporized=""/>
    <tripinfo id="veh_54" depart="57.00" departLane="east_left_0" departPos="5.10" departSpeed="0.00" departDelay="9.00" arrival="99.00" arrivalLane="north_up_0" arrivalPos="91.95" arrivalSpeed="13.68" duration="42.00" routeLength="183.80" waitingTime="18.00" waitingCount="1" stopTime="0.00" timeLoss="28.79" rerouteNo="0" devices="tripinfo_veh_54" vType="0" speedFactor="1.00" vaporized=""/>
    <tripinfo id="veh_62" depart="83.00" departLane="east_left_0" departPos="5.10" departSpeed="0.00" departDelay="32.00" arrival="101.00" arrivalLane="north_up_0" arrivalPos="91.95" arrivalSpeed="13.02" duration="18.00" routeLength="183.80" waitingTime="0.00" waitingCount="0" stopTime="0.00" timeLoss="4.62" rerouteNo="0" devices="tripinfo_veh_62" vType="0" speedFactor="1.02" vaporized=""/>
    <tripinfo id="veh_64" depart="82.00" departLane="west_right_0" departPos="10.10" departSpeed="0.00" departDelay="27.00" arrival="101.00" arrivalLane="east_right_0" arrivalPos="91.95" arrivalSpeed="12.07" duration="19.00" routeLength="189.90" waitingTime="0.00" waitingCount="0" stopTime="0.00" timeLoss="3.86" rerouteNo="0" devices="tripinfo_veh_64" vType="3" speedFactor="0.94" vaporized=""/>
    <tripinfo id="veh_0" depart="5.00" departLane="west_right_0" departPos="3.10" departSpeed="0.00" departDelay="0.00" arrival="105.00" arrivalLane="north_up_1" arrivalPos="91.95" arrivalSpeed="13.35" duration="100.00" routeLength="196.44" waitingTime="71.00" waitingCount="2" stopTime="0.00" timeLoss="85.92" rerouteNo="0" devices="tripinfo_veh_0" vType="1" speedFactor="1.06" vaporized=""/>
    <tripinfo id="veh_10" depart="11.00" departLane="east_left_0" departPos="4.10" departSpeed="0.00" departDelay="3.00" arrival="106.00" arrivalLane="south_down_1" arrivalPos="91.95" arrivalSpeed="13.03" duration="95.00" routeLength="195.44" waitingTime="65.00" waitingCount="2" stopTime="0.00" timeLoss="80.40" rerouteNo="0" devices="tripinfo_veh_10" vType="2" speedFactor="1.09" vaporized=""/>
    <tripinfo id="veh_70" depart="89.00" departLane="east_left_0" departPos="10.10" departSpeed="0.00" departDelay="33.00" arrival="107.00" arrivalLane="west_left_0" arrivalPos="91.95" arrivalSpeed="13.31" duration="18.00" routeLength="189.90" waitingTime="0.00" waitingCount="0" stopTime="0.00" timeLoss="4.29" rerouteNo="0" devices="tripinfo_veh_70" vType="3" speedFactor="1.02" vaporized=""/>
    <tripinfo id="veh_46" depart="53.00" departLane="east_left_0" departPos="5.10" departSpeed="0.00" departDelay="8.00" arrival="108.00" arrivalLane="south_down_1" arrivalPos="91.95" arrivalSpeed="13.61" duration="55.00" routeLength="194.44" waitingTime="24.00" waitingCount="2" stopTime="0.00" timeLoss="40.00" rerouteNo="0" devices="tripinfo_veh_46" vType="0" speedFactor="1.00" vaporized=""/>
    <tripinfo id="veh_50" depart="54.00" departLane="east_left_0" departPos="5.10" departSpeed="0.00" departDelay="7.00" arrival="110.00" arrivalLane="south_down_1" arrivalPos="91.95" arrivalSpeed="11.82" duration="56.00" routeLength="194.44" waitingTime="21.00" waitingCount="2" stopTime="0.00" timeLoss="39.27" rerouteNo="0" devices="tripinfo_veh_50" vType="0" speedFactor="0.85" vaporized=""/>
    <tripinfo id="veh_12" depart="16.00" departLane="west_right_0" departPos="10.10" departSpeed="0.00" departDelay="7.00" arrival="112.00" arrivalLane="north_up_1" arrivalPos="91.95" arrivalSpeed="13.79" duration="96.00" routeLength="189.44" waitingTime="63.00" waitingCount="3" stopTime="0.00" timeLoss="82.06" rerouteNo="0" devices="tripinfo_veh_12" vType="3" speedFactor="1.05" vaporized=""/>
    <tripinfo id="veh_53" depart="58.00" departLane="north_down_0" departPos="4.10" departSpeed="0.00" departDelay="10.00" arrival="116.00" arrivalLane="south_down_0" arrivalPos="91.95" arrivalSpeed="13.09" duration="58.00" routeLength="195.90" waitingTime="33.00" waitingCount="1" stopTime="0.00" timeLoss="43.78" rerouteNo="0" devices="tripinfo_veh_53" vType="2" speedFactor="1.10" vaporized=""/>
    <tripinfo id="veh_55" depart="57.00" departLane="south_up_0" departPos="10.10" departSpeed="0.00" departDelay="9.00" arrival="116.00" arrivalLane="north_up_0" arrivalPos="91.95" arrivalSpeed="13.34" duration="59.00" routeLength="189.90" waitingTime="33.00" waitingCount="1" stopTime="0.00" timeLoss="44.82" rerouteNo="0" devices="tripinfo_veh_55" vType="3" speedFactor="1.00" vaporized=""/>
    <tripinfo id="veh_57" depart="61.00" departLane="north_down_0" departPos="4.10" departSpeed="0.00" departDelay="12.00" arrival="117.00" arrivalLane="west_left_0" arrivalPos="91.95" arrivalSpeed="13.01" duration="56.00" routeLength="184.80" waitingTime="31.00" waitingCount="1" stopTime="0.00" timeLoss="42.56" rerouteNo="0" devices="tripinfo_veh_57" vType="2" speedFactor="1.14" vaporized=""/>
    <tripinfo id="veh_59" depart="60.00" departLane="south_up_0" departPos="3.10" departSpeed="0.00" departDelay="11.00" arrival="118.00" arrivalLane="east_right_0" arrivalPos="91.95" arrivalSpeed="13.22" duration="58.00" routeLength="185.80" waitingTime="32.00" waitingCount="1" stopTime="0.00" timeLoss="43.52" rerouteNo="0" devices="tripinfo_veh_59" vType="1" speedFactor="0.97" vaporized=""/>
    <tripinfo id="veh_61" depart="64.00" departLane="north_down_0" departPos="3.10" departSpeed="0.00" departDelay="13.00" arrival="120.00" arrivalLane="south_down_0" arrivalPos="91.95" arrivalSpeed="13.46" duration="56.00" routeLength="196.90" waitingTime="30.00" waitingCount="1" stopTime="0.00" timeLoss="41.37" rerouteNo="0" devices="tripinfo_veh_61" vType="1" speedFactor="1.12" vaporized=""/>
    <tripinfo id="veh_63" depart="65.00" departLane="south_up_0" departPos="10.10" departSpeed="0.00" departDelay="14.00" arrival="120.00" arrivalLane="north_up_0" arrivalPos="91.95" arrivalSpeed="12.77" duration="55.00" routeLength="189.90" waitingTime="30.00" waitingCount="1" stopTime="0.00" timeLoss="41.10" rerouteNo="0" devices="tripinfo_veh_63" vType="3" speedFactor="0.99" vaporized=""/>
    <tripinfo id="veh_65" depart="67.00" departLane="north_down_0" departPos="3.10" departSpeed="0.00" departDelay="12.00" arrival="122.00" arrivalLane="south_down_0" arrivalPos="91.95" arrivalSpeed="11.39" duration="55.00" routeLength="196.90" waitingTime="28.00" waitingCount="1" stopTime="0.00" timeLoss="38.80" rerouteNo="0" devices="tripinfo_veh_65" vType="1" speedFactor="0.88" vaporized=""/>
    <tripinfo id="veh_75" depart="74.00" departLane="south_up_0" departPos="4.10" departSpeed="0.00" departDelay="15.00" arrival="123.00" arrivalLane="north_up_0" arrivalPos="91.95" arrivalSpeed="13.06" duration="49.00" routeLength="195.90" waitingTime="22.00" waitingCount="1" stopTime="0.00" timeLoss="33.88" rerouteNo="0" devices="tripinfo_veh_75" vType="2" speedFactor="0.98" vaporized=""/>
    <tripinfo id="veh_69" depart="70.00" departLane="north_down_0" departPos="5.10" departSpeed="0.00" departDelay="14.00" arrival="124.00" arrivalLane="south_down_0" arrivalPos="91.95" arrivalSpeed="13.40" duration="54.00" routeLength="194.90" waitingTime="27.00" waitingCount="1" stopTime="0.00" timeLoss="39.44" rerouteNo="0" devices="tripinfo_veh_69" vType="0" speedFactor="1.02" vaporized=""/>
    <tripinfo id="veh_79" depart="78.00" departLane="south_up_0" departPos="10.10" departSpeed="0.00" departDelay="14.00" arrival="124.00" arrivalLane="north_up_0" arrivalPos="91.95" arrivalSpeed="13.69" duration="46.00" routeLength="189.90" waitingTime="21.00" waitingCount="1" stopTime="0.00" timeLoss="32.18" rerouteNo="0" devices="tripinfo_veh_79" vType="3" speedFactor="1.09" vaporized=""/>
    <tripinfo id="veh_73" depart="73.00" departLane="north_down_0" departPos="4.10" departSpeed="0.00" departDelay="14.00" arrival="125.00" arrivalLane="south_down_0" arrivalPos="91.95" arrivalSpeed="13.42" duration="52.00" routeLength="195.90" waitingTime="25.00" waitingCount="1" stopTime="0.00" timeLoss="38.01" rerouteNo="0" devices="tripinfo_veh_73" vType="2" speedFactor="1.06" vaporized=""/>
    <tripinfo id="veh_85" depart="83.00" departLane="north_down_0" departPos="5.10" departSpeed="0.00" departDelay="16.00" arrival="126.00" arrivalLane="west_left_0" arrivalPos="91.95" arrivalSpeed="12.63" duration="43.00" routeLength="183.80" waitingTime="16.00" waitingCount="1" stopTime="0.00" timeLoss="29.07" rerouteNo="0" devices="tripinfo_veh_85" vType="0" speedFactor="0.98" vaporized=""/>
    <tripinfo id="veh_83" depart="81.00" departLane="south_up_0" departPos="3.10" departSpeed="0.00" departDelay="16.00" arrival="127.00" arrivalLane="north_up_0" arrivalPos="91.95" arrivalSpeed="13.03" duration="46.00" routeLength="196.90" waitingTime="18.00" waitingCount="1" stopTime="0.00" timeLoss="30.48" rerouteNo="0" devices="tripinfo_veh_83" vType="1" speedFactor="0.97" vaporized=""/>
    <tripinfo id="veh_87" depart="84.00" departLane="south_up_0" departPos="5.10" departSpeed="0.00" departDelay="17.00" arrival="128.00" arrivalLane="north_up_0" arrivalPos="91.95" arrivalSpeed="13.71" duration="44.00" routeLength="194.90" waitingTime="17.00" waitingCount="1" stopTime="0.00" timeLoss="29.73" rerouteNo="0" devices="tripinfo_veh_87" vType="0" speedFactor="1.04" vaporized=""/>
    <tripinfo id="veh_93" depart="88.00" departLane="north_down_0" departPos="5.10" departSpeed="0.00" departDelay="15.00" arrival="128.00" arrivalLane="west_left_0" arrivalPos="91.95" arrivalSpeed="12.40" duration="40.00" routeLength="183.80" waitingTime="14.00" waitingCount="1" stopTime="0.00" timeLoss="25.37" rerouteNo="0" devices="tripinfo_veh_93" vType="0" speedFactor="0.92" vaporized=""/>
    <tripinfo id="veh_99" depart="92.00" departLane="south_up_0" departPos="4.10" departSpeed="0.00" departDelay="18.00" arrival="130.00" arrivalLane="north_up_0" arrivalPos="91.95" arrivalSpeed="13.73" duration="38.00" routeLength="195.90" waitingTime="13.00" waitingCount="1" stopTime="0.00" timeLoss="23.30" rerouteNo="0" devices="tripinfo_veh_99" vType="2" speedFactor="1.10" vaporized=""/>
    <tripinfo id="veh_97" depart="91.00" departLane="north_down_0" departPos="4.10" departSpeed="0.00" departDelay="17.00" arrival="132.00" arrivalLane="south_down_0" arrivalPos="91.95" arrivalSpeed="12.22" duration="41.00" routeLength="195.90" waitingTime="12.00" waitingCount="1" stopTime="0.00" timeLoss="24.53" rerouteNo="0" devices="tripinfo_veh_97" vType="2" speedFactor="0.91" vaporized=""/>
    <tripinfo id="veh_101" depart="94.00" departLane="north_down_0" departPos="5.10" departSpeed="0.00" departDelay="12.00" arrival="132.00" arrivalLane="west_left_0" arrivalPos="91.95" arrivalSpeed="12.69" duration="38.00" routeLength="183.80" waitingTime="12.00" waitingCount="1" stopTime="0.00" timeLoss="23.94" rerouteNo="0" devices="tripinfo_veh_101" vType="0" speedFactor="0.96" vaporized=""/>
    <tripinfo id="veh_103" depart="95.00" departLane="south_up_0" departPos="3.10" departSpeed="0.00" departDelay="13.00" arrival="132.00" arrivalLane="east_right_0" arrivalPos="91.95" arrivalSpeed="12.34" duration="37.00" routeLength="185.80" waitingTime="10.00" waitingCount="1" stopTime="0.00" timeLoss="22.43" rerouteNo="0" devices="tripinfo_veh_103" vType="1" speedFactor="0.95" vaporized=""/>