<?xml version="1.0" encoding="UTF-8"?>

<!-- generated on 2022-01-24 11:25:52 by Eclipse SUMO sumo Version 1.10.0
<configuration xmlns:xsi="http://www.w3.org/2001/XMLSchema-instance" xsi:noNamespaceSchemaLocation="http://sumo.dlr.de/xsd/sumoConfiguration.xsd">

    <input>
        <net-file value="intersection.net.xml"/>
        <route-files value="live_routes/data1640280023.2632737.rou.xml"/>
    </input>

    <output>
        <tripinfo-output value="adaptive/tripinfo.xml"/>
        <tripinfo-output.write-unfinished value="true"/>
    </output>

    <time>
        <begin value="0"/>
    </time>

    <processing>
        <time-to-teleport value="-1"/>
        <waiting-time-memory value="1000"/>
    </processing>

    <report>
        <verbose value="true"/>
        <error-log value="error.log.xml"/>
        <duration-log.statistics value="true"/>
        <no-step-log value="true"/>
    </report>

    <traci_server>
        <remote-port value="50317"/>
    </traci_server>

</configuration>
-->

<tripinfos xmlns:xsi="http://www.w3.org/2001/XMLSchema-instance" xsi:noNamespaceSchemaLocation="http://sumo.dlr.de/xsd/tripinfo_file.xsd">
    <tripinfo id="veh_3" depart="5.00" departLane="south_up_0" departPos="3.10" departSpeed="0.00" departDelay="0.00" arrival="23.00" arrivalLane="east_right_0" arrivalPos="91.95" arrivalSpeed="13.70" duration="18.00" routeLength="185.80" waitingTime="0.00" waitingCount="0" stopTime="0.00" timeLoss="4.25" rerouteNo="0" devices="tripinfo_veh_3" vType="1" speedFactor="1.08" vaporized=""/>
    <tripinfo id="veh_1" depart="5.00" departLane="north_down_0" departPos="3.10" departSpeed="0.00" departDelay="0.00" arrival="26.00" arrivalLane="east_right_1" arrivalPos="91.95" arrivalSpeed="12.95" duration="21.00" routeLength="196.44" waitingTime="0.00" waitingCount="0" stopTime="0.00" timeLoss="5.91" rerouteNo="0" devices="tripinfo_veh_1" vType="1" speedFactor="0.94" vaporized=""/>
    <tripinfo id="veh_5" depart="8.00" departLane="north_down_0" departPos="10.10" departSpeed="0.00" departDelay="1.00" arrival="28.00" arrivalLane="south_down_0" arrivalPos="91.95" arrivalSpeed="11.19" duration="20.00" routeLength="189.90" waitingTime="0.00" waitingCount="0" stopTime="0.00" timeLoss="3.38" rerouteNo="0" devices="tripinfo_veh_5" vType="3" speedFactor="0.83" vaporized=""/>
    <tripinfo id="veh_7" depart="8.00" departLane="south_up_0" departPos="5.10" departSpeed="0.00" departDelay="1.00" arrival="28.00" arrivalLane="east_right_0" arrivalPos="91.95" arrivalSpeed="11.43" duration="20.00" routeLength="183.80" waitingTime="0.00" waitingCount="0" stopTime="0.00" timeLoss="4.95" rerouteNo="0" devices="tripinfo_veh_7" vType="0" speedFactor="0.89" vaporized=""/>
    <tripinfo id="veh_9" depart="11.00" departLane="north_down_0" departPos="5.10" departSpeed="0.00" departDelay="3.00" arrival="31.00" arrivalLane="south_down_0" arrivalPos="91.95" arrivalSpeed="11.15" duration="20.00" routeLength="194.90" waitingTime="0.00" waitingCount="0" stopTime="0.00" timeLoss="3.52" rerouteNo="0" devices="tripinfo_veh_9" vType="0" speedFactor="0.86" vaporized=""/>
    <tripinfo id="veh_11" depart="13.00" departLane="south_up_0" departPos="10.10" departSpeed="0.00" departDelay="5.00" arrival="31.00" arrivalLane="north_up_0" arrivalPos="91.95" arrivalSpeed="13.97" duration="18.00" routeLength="189.90" waitingTime="0.00" waitingCount="0" stopTime="0.00" timeLoss="4.32" rerouteNo="0" devices="tripinfo_veh_11" vType="3" speedFactor="1.03" vaporized=""/>
    <tripinfo id="veh_13" depart="13.00" departLane="north_down_0" departPos="3.10" departSpeed="0.00" departDelay="4.00" arrival="32.00" arrivalLane="west_left_0" arrivalPos="91.95" arrivalSpeed="13.76" duration="19.00" routeLength="185.80" waitingTime="1.00" waitingCount="1" stopTime="0.00" timeLoss="4.89" rerouteNo="0" devices="tripinfo_veh_13" vType="1" speedFactor="1.12" vaporized=""/>
    <tripinfo id="veh_15" depart="16.00" departLane="south_up_0" departPos="3.10" departSpeed="0.00" departDelay="7.00" arrival="43.00" arrivalLane="north_up_0" arrivalPos="91.95" arrivalSpeed="12.83" duration="27.00" routeLength="196.90" waitingTime="2.00" waitingCount="1" stopTime="0.00" timeLoss="11.64" rerouteNo="0" devices="tripinfo_veh_15" vType="1" speedFactor="0.93" vaporized=""/>
    <tripinfo id="veh_17" depart="26.00" departLane="north_down_0" departPos="3.10" departSpeed="0.00" departDelay="0.00" arrival="45.00" arrivalLane="west_left_0" arrivalPos="91.95" arrivalSpeed="12.86" duration="19.00" routeLength="185.80" waitingTime="0.00" waitingCount="0" stopTime="0.00" timeLoss="4.75" rerouteNo="0" devices="tripinfo_veh_17" vType="1" speedFactor="0.94" vaporized=""/>
    <tripinfo id="veh_19" depart="26.00" departLane="south_up_0" departPos="3.10" departSpeed="0.00" departDelay="0.00" arrival="47.00" arrivalLane="west_left_1" arrivalPos="91.95" arrivalSpeed="13.25" duration="21.00" routeLength="196.44" waitingTime="0.00" waitingCount="0" stopTime="0.00" timeLoss="6.96" rerouteNo="0" devices="tripinfo_veh_19" vType="1" speedFactor="1.16" vaporized=""/>
    <tripinfo id="veh_21" depart="29.00" departLane="north_down_0" departPos="5.10" departSpeed="0.00" departDelay="2.00" arrival="49.00" arrivalLane="south_down_0" arrivalPos="91.95" arrivalSpeed="13.27" duration="20.00" routeLength="194.90" waitingTime="0.00" waitingCount="0" stopTime="0.00" timeLoss="5.66" rerouteNo="0" devices="tripinfo_veh_21" vType="0" speedFactor="1.01" vaporized=""/>
    <tripinfo id="veh_23" depart="29.00" departLane="south_up_0" departPos="10.10" departSpeed="0.00" departDelay="2.00" arrival="49.00" arrivalLane="north_up_0" arrivalPos="91.95" arrivalSpeed="11.81" duration="20.00" routeLength="189.90" waitingTime="0.00" waitingCount="0" stopTime="0.00" timeLoss="4.05" rerouteNo="0" devices="tripinfo_veh_23" vType="3" speedFactor="0.89" vaporized=""/>
    <tripinfo id="veh_27" depart="32.00" departLane="south_up_0" departPos="3.10" departSpeed="0.00" departDelay="3.00" arrival="52.00" arrivalLane="north_up_0" arrivalPos="91.95" arrivalSpeed="12.55" duration="20.00" routeLength="196.90" waitingTime="0.00" waitingCount="0" stopTime="0.00" timeLoss="4.17" rerouteNo="0" devices="tripinfo_veh_27" vType="1" speedFactor="0.95" vaporized=""/>
    <tripinfo id="veh_25" depart="33.00" departLane="north_down_0" departPos="5.10" departSpeed="0.00" departDelay="4.00" arrival="53.00" arrivalLane="south_down_0" arrivalPos="91.95" arrivalSpeed="11.16" duration="20.00" routeLength="194.90" waitingTime="0.00" waitingCount="0" stopTime="0.00" timeLoss="3.76" rerouteNo="0" devices="tripinfo_veh_25" vType="0" speedFactor="0.87" vaporized=""/>
    <tripinfo id="veh_29" depart="37.00" departLane="north_down_0" departPos="10.10" departSpeed="0.00" departDelay="7.00" arrival="56.00" arrivalLane="south_down_0" arrivalPos="91.95" arrivalSpeed="12.92" duration="19.00" routeLength="189.90" waitingTime="0.00" waitingCount="0" stopTime="0.00" timeLoss="4.22" rerouteNo="0" devices="tripinfo_veh_29" vType="3" speedFactor="0.93" vaporized=""/>
    <tripinfo id="veh_31" depart="35.00" departLane="south_up_0" departPos="3.10" departSpeed="0.00" departDelay="5.00" arrival="60.00" arrivalLane="west_left_1" arrivalPos="91.95" arrivalSpeed="13.75" duration="25.00" routeLength="196.44" waitingTime="0.00" waitingCount="0" stopTime="0.00" timeLoss="10.80" rerouteNo="0" devices="tripinfo_veh_31" vType="1" speedFactor="1.15" vaporized=""/>
    <tripinfo id="veh_33" depart="42.00" departLane="north_down_0" departPos="3.10" departSpeed="0.00" departDelay="0.00" arrival="60.00" arrivalLane="west_left_0" arrivalPos="91.95" arrivalSpeed="13.62" duration="18.00" routeLength="185.80" waitingTime="0.00" waitingCount="0" stopTime="0.00" timeLoss="4.61" rerouteNo="0" devices="tripinfo_veh_33" vType="1" speedFactor="1.17" vaporized=""/>
    <tripinfo id="veh_37" depart="45.00" departLane="north_down_0" departPos="3.10" departSpeed="0.00" departDelay="2.00" arrival="64.00" arrivalLane="south_down_0" arrivalPos="91.95" arrivalSpeed="13.72" duration="19.00" routeLength="196.90" waitingTime="0.00" waitingCount="0" stopTime="0.00" timeLoss="4.37" rerouteNo="0" devices="tripinfo_veh_37" vType="1" speedFactor="1.18" vaporized=""/>
    <tripinfo id="veh_43" depart="46.00" departLane="south_up_0" departPos="4.10" departSpeed="0.00" departDelay="2.00" arrival="65.00" arrivalLane="north_up_0" arrivalPos="91.95" arrivalSpeed="13.04" duration="19.00" routeLength="195.90" waitingTime="0.00" waitingCount="0" stopTime="0.00" timeLoss="4.64" rerouteNo="0" devices="tripinfo_veh_43" vType="2" speedFactor="1.04" vaporized=""/>
    <tripinfo id="veh_35" depart="42.00" departLane="south_up_0" departPos="5.10" departSpeed="0.00" departDelay="0.00" arrival="69.00" arrivalLane="west_left_1" arrivalPos="91.95" arrivalSpeed="13.54" duration="27.00" routeLength="194.44" waitingTime="1.00" waitingCount="1" stopTime="0.00" timeLoss="12.45" rerouteNo="0" devices="tripinfo_veh_35" vType="0" speedFactor="1.02" vaporized=""/>
    <tripinfo id="veh_39" depart="44.00" departLane="south_up_0" departPos="4.10" departSpeed="0.00" departDelay="1.00" arrival="71.00" arrivalLane="west_left_1" arrivalPos="91.95" arrivalSpeed="12.04" duration="27.00" routeLength="195.44" waitingTime="0.00" waitingCount="0" stopTime="0.00" timeLoss="10.96" rerouteNo="0" devices="tripinfo_veh_39" vType="2" speedFactor="0.90" vaporized=""/>
    <tripinfo id="veh_2" depart="5.00" departLane="east_left_0" departPos="3.10" departSpeed="0.00" departDelay="0.00" arrival="72.00" arrivalLane="west_left_0" arrivalPos="91.95" arrivalSpeed="13.62" duration="67.00" routeLength="196.90" waitingTime="43.00" waitingCount="1" stopTime="0.00" timeLoss="52.53" rerouteNo="0" devices="tripinfo_veh_2" vType="1" speedFactor="1.01" vaporized=""/>
    <tripinfo id="veh_4" depart="8.00" departLane="west_right_0" departPos="4.10" departSpeed="0.00" departDelay="1.00" arrival="72.00" arrivalLane="south_down_0" arrivalPos="91.95" arrivalSpeed="13.84" duration="64.00" routeLength="184.80" waitingTime="39.00" waitingCount="1" stopTime="0.00" timeLoss="50.21" rerouteNo="0" devices="tripinfo_veh_4" vType="2" speedFactor="1.03" vaporized=""/>
    <tripinfo id="veh_6" depart="8.00" departLane="east_left_0" departPos="3.10" departSpeed="0.00" departDelay="1.00" arrival="74.00" arrivalLane="north_up_0" arrivalPos="91.95" arrivalSpeed="13.92" duration="66.00" routeLength="185.80" waitingTime="40.00" waitingCount="1" stopTime="0.00" timeLoss="52.07" rerouteNo="0" devices="tripinfo_veh_6" vType="1" speedFactor="1.05" vaporized=""/>
    <tripinfo id="veh_8" depart="12.00" departLane="west_right_0" departPos="10.10" departSpeed="0.00" departDelay="4.00" arrival="74.00" arrivalLane="south_down_0" arrivalPos="91.95" arrivalSpeed="12.57" duration="62.00" routeLength="178.80" waitingTime="35.00" waitingCount="1" stopTime="0.00" timeLoss="47.92" rerouteNo="0" devices="tripinfo_veh_8" vType="3" speedFactor="0.94" vaporized=""/>
    <tripinfo id="veh_14" depart="14.00" departLane="east_left_0" departPos="3.10" departSpeed="0.00" departDelay="5.00" arrival="76.00" arrivalLane="north_up_0" arrivalPos="91.95" arrivalSpeed="13.76" duration="62.00" routeLength="185.80" waitingTime="36.00" waitingCount="1" stopTime="0.00" timeLoss="47.55" rerouteNo="0" devices="tripinfo_veh_14" vType="1" speedFactor="0.99" vaporized=""/>
    <tripinfo id="veh_24" depart="30.00" departLane="west_right_0" departPos="10.10" departSpeed="0.00" departDelay="1.00" arrival="77.00" arrivalLane="south_down_0" arrivalPos="91.95" arrivalSpeed="11.08" duration="47.00" routeLength="178.80" waitingTime="22.00" waitingCount="1" stopTime="0.00" timeLoss="31.16" rerouteNo="0" devices="tripinfo_veh_24" vType="3" speedFactor="0.83" vaporized=""/>
    <tripinfo id="veh_18" depart="26.00" departLane="east_left_0" departPos="5.10" departSpeed="0.00" departDelay="0.00" arrival="78.00" arrivalLane="west_left_0" arrivalPos="91.95" arrivalSpeed="12.14" duration="52.00" routeLength="194.90" waitingTime="26.00" waitingCount="1" stopTime="0.00" timeLoss="36.53" rerouteNo="0" devices="tripinfo_veh_18" vType="0" speedFactor="0.94" vaporized=""/>
    <tripinfo id="veh_28" depart="33.00" departLane="west_right_0" departPos="5.10" departSpeed="0.00" departDelay="3.00" arrival="79.00" arrivalLane="east_right_0" arrivalPos="91.95" arrivalSpeed="13.75" duration="46.00" routeLength="194.90" waitingTime="18.00" waitingCount="1" stopTime="0.00" timeLoss="31.79" rerouteNo="0" devices="tripinfo_veh_28" vType="0" speedFactor="1.13" vaporized=""/>
    <tripinfo id="veh_22" depart="29.00" departLane="east_left_0" departPos="3.10" departSpeed="0.00" departDelay="2.00" arrival="80.00" arrivalLane="west_left_0" arrivalPos="91.95" arrivalSpeed="12.91" duration="51.00" routeLength="196.90" waitingTime="23.00" waitingCount="1" stopTime="0.00" timeLoss="36.16" rerouteNo="0" devices="tripinfo_veh_22" vType="1" speedFactor="0.98" vaporized=""/>
    <tripinfo id="veh_36" depart="44.00" departLane="west_right_0" departPos="10.10" departSpeed="0.00" departDelay="1.00" arrival="81.00" arrivalLane="east_right_0" arrivalPos="91.95" arrivalSpeed="12.53" duration="37.00" routeLength="189.90" waitingTime="11.00" waitingCount="1" stopTime="0.00" timeLoss="22.74" rerouteNo="0" devices="tripinfo_veh_36" vType="3" speedFactor="0.97" vaporized=""/>
    <tripinfo id="veh_26" depart="33.00" departLane="east_left_0" departPos="10.10" departSpeed="0.00" departDelay="4.00" arrival="82.00" arrivalLane="west_left_0" arrivalPos="91.95" arrivalSpeed="12.59" duration="49.00" routeLength="189.90" waitingTime="21.00" waitingCount="1" stopTime="0.00" timeLoss="33.70" rerouteNo="0" devices="tripinfo_veh_26" vType="3" speedFactor="0.92" vaporized=""/>
    <tripinfo id="veh_40" depart="48.00" departLane="west_right_0" departPos="10.10" departSpeed="0.00" departDelay="4.00" arrival="83.00" arrivalLane="east_right_0" arrivalPos="91.95" arrivalSpeed="13.46" duration="35.00" routeLength="189.90" waitingTime="9.00" waitingCount="1" stopTime="0.00" timeLoss="21.29" rerouteNo="0" devices="tripinfo_veh_40" vType="3" speedFactor="1.03" vaporized=""/>
    <tripinfo id="veh_30" depart="36.00" departLane="east_left_0" departPos="3.10" departSpeed="0.00" departDelay="6.00" arrival="84.00" arrivalLane="west_left_0" arrivalPos="91.95" arrivalSpeed="13.61" duration="48.00" routeLength="196.90" waitingTime="20.00" waitingCount="1" stopTime="0.00" timeLoss="33.55" rerouteNo="0" devices="tripinfo_veh_30" vType="1" speedFactor="1.18" vaporized=""/>
    <tripinfo id="veh_34" depart="42.00" departLane="east_left_0" departPos="4.10" departSpeed="0.00" departDelay="0.00" arrival="86.00" arrivalLane="west_left_0" arrivalPos="91.95" arrivalSpeed="13.22" duration="44.00" routeLength="195.90" waitingTime="17.00" waitingCount="1" stopTime="0.00" timeLoss="29.07" rerouteNo="0" devices="tripinfo_veh_34" vType="2" speedFactor="0.99" vaporized=""/>
    <tripinfo id="veh_48" depart="53.00" departLane="west_right_0" departPos="3.10" departSpeed="0.00" departDelay="6.00" arrival="86.00" arrivalLane="south_down_0" arrivalPos="91.95" arrivalSpeed="12.13" duration="33.00" routeLength="185.80" waitingTime="5.00" waitingCount="1" stopTime="0.00" timeLoss="16.87" rerouteNo="0" devices="tripinfo_veh_48" vType="1" speedFactor="0.88" vaporized=""/>
    <tripinfo id="veh_52" depart="56.00" departLane="west_right_0" departPos="5.10" departSpeed="0.00" departDelay="8.00" arrival="87.00" arrivalLane="south_down_0" arrivalPos="91.95" arrivalSpeed="13.16" duration="31.00" routeLength="183.80" waitingTime="6.00" waitingCount="1" stopTime="0.00" timeLoss="17.55" rerouteNo="0" devices="tripinfo_veh_52" vType="0" speedFactor="1.02" vaporized=""/>
    <tripinfo id="veh_0" depart="5.00" departLane="west_right_0" departPos="3.10" departSpeed="0.00" departDelay="0.00" arrival="89.00" arrivalLane="north_up_1" arrivalPos="91.95" arrivalSpeed="13.35" duration="84.00" routeLength="196.44" waitingTime="54.00" waitingCount="2" stopTime="0.00" timeLoss="69.90" rerouteNo="0" devices="tripinfo_veh_0" vType="1" speedFactor="1.06" vaporized=""/>
    <tripinfo id="veh_10" depart="11.00" departLane="east_left_0" departPos="4.10" departSpeed="0.00" departDelay="3.00" arrival="90.00" arrivalLane="south_down_1" arrivalPos="91.95" arrivalSpeed="13.68" duration="79.00" routeLength="195.44" waitingTime="50.00" waitingCount="2" stopTime="0.00" timeLoss="64.92" rerouteNo="0" devices="tripinfo_veh_10" vType="2" speedFactor="1.09" vaporized=""/>
    <tripinfo id="veh_12" depart="16.00" departLane="west_right_0" departPos="10.10" departSpeed="0.00" departDelay="7.00" arrival="92.00" arrivalLane="north_up_1" arrivalPos="91.95" arrivalSpeed="13.34" duration="76.00" routeLength="189.44" waitingTime="44.00" waitingCount="2" stopTime="0.00" timeLoss="61.96" rerouteNo="0" devices="tripinfo_veh_12" vType="3" speedFactor="1.05" vaporized=""/>
    <tripinfo id="veh_46" depart="53.00" departLane="east_left_0" departPos="5.10" departSpeed="0.00" departDelay="8.00" arrival="92.00" arrivalLane="south_down_1" arrivalPos="91.95" arrivalSpeed="13.31" duration="39.00" routeLength="194.44" waitingTime="12.00" waitingCount="1" stopTime="0.00" timeLoss="24.58" rerouteNo="0" devices="tripinfo_veh_46" vType="0" speedFactor="1.00" vaporized=""/>
    <tripinfo id="veh_41" depart="48.00" departLane="north_down_0" departPos="4.10" departSpeed="0.00" departDelay="4.00" arrival="94.00" arrivalLane="west_left_0" arrivalPos="91.95" arrivalSpeed="12.62" duration="46.00" routeLength="184.80" waitingTime="20.00" waitingCount="1" stopTime="0.00" timeLoss="31.59" rerouteNo="0" devices="tripinfo_veh_41" vType="2" speedFactor="0.96" vaporized=""/>
    <tripinfo id="veh_47" depart="49.00" departLane="south_up_0" departPos="3.10" departSpeed="0.00" departDelay="4.00" arrival="94.00" arrivalLane="north_up_0" arrivalPos="91.95" arrivalSpeed="11.72" duration="45.00" routeLength="196.90" waitingTime="21.00" waitingCount="1" stopTime="0.00" timeLoss="29.25" rerouteNo="0" devices="tripinfo_veh_47" vType="1" speedFactor="0.90" vaporized=""/>
    <tripinfo id="veh_51" depart="52.00" departLane="south_up_0" departPos="5.10" departSpeed="0.00" departDelay="5.00" arrival="95.00" arrivalLane="east_right_0" arrivalPos="91.95" arrivalSpeed="13.50" duration="43.00" routeLength="183.80" waitingTime="19.00" waitingCount="1" stopTime="0.00" timeLoss="29.63" rerouteNo="0" devices="tripinfo_veh_51" vType="0" speedFactor="1.17" vaporized=""/>
    <tripinfo id="veh_53" depart="58.00" departLane="north_down_0" departPos="4.10" departSpeed="0.00" departDelay="10.00" arrival="97.00" arrivalLane="south_down_0" arrivalPos="91.95" arrivalSpeed="13.18" duration="39.00" routeLength="195.90" waitingTime="11.00" waitingCount="1" stopTime="0.00" timeLoss="24.18" rerouteNo="0" devices="tripinfo_veh_53" vType="2" speedFactor="1.10" vaporized=""/>
    <tripinfo id="veh_57" depart="61.00" departLane="north_down_0" departPos="4.10" departSpeed="0.00" departDelay="12.00" arrival="98.00" arrivalLane="west_left_0" arrivalPos="91.95" arrivalSpeed="13.23" duration="37.00" routeLength="184.80" waitingTime="11.00" waitingCount="1" stopTime="0.00" timeLoss="23.22" rerouteNo="0" devices="tripinfo_veh_57" vType="2" speedFactor="1.14" vaporized=""/>
    <tripinfo id="veh_55" depart="57.00" departLane="south_up_0" departPos="10.10" departSpeed="0.00" departDelay="9.00" arrival="99.00" arrivalLane="north_up_0" arrivalPos="91.95" arrivalSpeed="13.59" duration="42.00" routeLength="189.90" waitingTime="15.00" waitingCount="1" stopTime="0.00" timeLoss="27.50" rerouteNo="0" devices="tripinfo_veh_55" vType="3" speedFactor="1.00" vaporized=""/>
    <tripinfo id="veh_59" depart="60.00" departLane="south_up_0" departPos="3.10" departSpeed="0.00" departDelay="11.00" arrival="100.00" arrivalLane="east_right_0" arrivalPos="91.95" arrivalSpeed="13.18" duration="40.00" routeLength="185.80" waitingTime="14.00" waitingCount="1" stopTime="0.00" timeLoss="25.55" rerouteNo="0" devices="tripinfo_veh_59" vType="1" speedFactor="0.97" vaporized=""/>
    <tripinfo id="veh_61" depart="64.00" departLane="north_down_0" departPos="3.10" departSpeed="0.00" departDelay="13.00" arrival="100.00" arrivalLane="south_down_0" arrivalPos="91.95" arrivalSpeed="13.24" duration="36.00" routeLength="196.90" waitingTime="9.00" waitingCount="1" stopTime="0.00" timeLoss="21.48" rerouteNo="0" devices="tripinfo_veh_61" vType="1" speedFactor="1.12" vaporized=""/>
    <tripinfo id="veh_63" depart="64.00" departLane="south_up_0" departPos="10.10" departSpeed="0.00" departDelay="13.00" arrival="102.00" arrivalLane="north_up_0" arrivalPos="91.95" arrivalSpeed="13.25" duration="38.00" routeLength="189.90" waitingTime="11.00" waitingCount="1" stopTime="0.00" timeLoss="23.77" rerouteNo="0" devices="tripinfo_veh_63" vType="3" speedFactor="0.99" vaporized=""/>
    <tripinfo id="veh_65" depart="67.00" departLane="north_down_0" departPos="3.10" departSpeed="0.00" departDelay="12.00" arrival="102.00" arrivalLane="south_down_0" arrivalPos="91.95" arrivalSpeed="12.05" duration="35.00" routeLength="196.90" waitingTime="7.00" waitingCount="1" stopTime="0.00" timeLoss="18.80" rerouteNo="0" devices="tripinfo_veh_65" vType="1" speedFactor="0.88" vaporized=""/>
    <tripinfo id="veh_69" depart="70.00" departLane="north_down_0" departPos="5.10" departSpeed="0.00" departDelay="14.00" arrival="104.00" arrivalLane="south_down_0" arrivalPos="91.95" arrivalSpeed="13.40" duration="34.00" routeLength="194.90" waitingTime="7.00" waitingCount="1" stopTime="0.00" timeLoss="19.47" rerouteNo="0" devices="tripinfo_veh_69" vType="0" speedFactor="1.02" vaporized=""/>
    <tripinfo id="veh_75" depart="72.00" departLane="south_up_0" departPos="4.10" departSpeed="0.00" departDelay="13.00" arrival="104.00" arrivalLane="north_up_0" arrivalPos="91.95" arrivalSpeed="12.87" duration="32.00" routeLength="195.90" waitingTime="5.00" waitingCount="1" stopTime="0.00" timeLoss="17.67" rerouteNo="0" devices="tripinfo_veh_75" vType="2" speedFactor="0.98" vaporized=""/>
    <tripinfo id="veh_73" depart="73.00" departLane="north_down_0" departPos="4.10" departSpeed="0.00" departDelay="14.00" arrival="106.00" arrivalLane="south_down_0" arrivalPos="91.95" arrivalSpeed="13.32" duration="33.00" routeLength="195.90" waitingTime="5.00" waitingCount="1" stopTime="0.00" timeLoss="18.09" rerouteNo="0" devices="tripinfo_veh_73" vType="2" speedFactor="1.06" vaporized=""/>
    <tripinfo id="veh_79" depart="77.00" departLane="south_up_0" departPos="10.10" departSpeed="0.00" departDelay="13.00" arrival="106.00" arrivalLane="north_up_0" arrivalPos="91.95" arrivalSpeed="13.71" duration="29.00" routeLength="189.90" waitingTime="3.00" waitingCount="1" stopTime="0.00" timeLoss="14.99" rerouteNo="0" devices="tripinfo_veh_79" vType="3" speedFactor="1.09" vaporized=""/>
    <tripinfo id="veh_85" depart="82.00" departLane="north_down_0" departPos="5.10" departSpeed="0.00" departDelay="15.00" arrival="106.00" arrivalLane="west_left_0" arrivalPos="91.95" arrivalSpeed="13.32" duration="24.00" routeLength="183.80" waitingTime="0.00" waitingCount="0" stopTime="0.00" timeLoss="9.98" rerouteNo="0" devices="tripinfo_veh_85" vType="0" speedFactor="0.98" vaporized=""/>
    <tripinfo id="veh_83" depart="80.00" departLane="south_up_0" departPos="3.10" departSpeed="0.00" departDelay="15.00" arrival="108.00" arrivalLane="north_up_0" arrivalPos="91.95" arrivalSpeed="12.53" duration="28.00" routeLength="196.90" waitingTime="2.00" waitingCount="1" stopTime="0.00" timeLoss="13.32" rerouteNo="0" devices="tripinfo_veh_83" vType="1" speedFactor="0.97" vaporized=""/>
    <tripinfo id="veh_93" depart="88.00" departLane="north_down_0" departPos="5.10" departSpeed="0.00" departDelay="15.00" arrival="108.00" arrivalLane="west_left_0" arrivalPos="91.95" arrivalSpeed="12.44" duration="20.00" routeLength="183.80" waitingTime="0.00" waitingCount="0" stopTime="0.00" timeLoss="5.36" rerouteNo="0" devices="tripinfo_veh_93" vType="0" speedFactor="0.92" vaporized=""/>
    <tripinfo id="veh_87" depart="84.00" departLane="south_up_0" departPos="5.10" departSpeed="0.00" departDelay="17.00" arrival="110.00" arrivalLane="north_up_0" arrivalPos="91.95" arrivalSpeed="13.97" duration="26.00" routeLength="194.90" waitingTime="0.00" waitingCount="0" stopTime="0.00" timeLoss="11.50" rerouteNo="0" devices="tripinfo_veh_87" vType="0" speedFactor="1.04" vaporized=""/>
    <tripinfo id="veh_97" depart="91.00" departLane="north_down_0" departPos="4.10" departSpeed="0.00" departDelay="17.00" arrival="112.00" arrivalLane="south_down_0" arrivalPos="91.95" arrivalSpeed="12.28" duration="21.00" routeLength="195.90" waitingTime="0.00" waitingCount="0" stopTime="0.00" timeLoss="4.85" rerouteNo="0" devices="tripinfo_veh_97" vType="2" speedFactor="0.91" vaporized=""/>
    <tripinfo id="veh_99" depart="92.00" departLane="south_up_0" departPos="4.10" departSpeed="0.00" departDelay="18.00" arrival="112.00" arrivalLane="north_up_0" arrivalPos="91.95" arrivalSpeed="13.69" duration="20.00" routeLength="195.90" waitingTime="0.00" waitingCount="0" stopTime="0.00" timeLoss="5.27" rerouteNo="0" devices="tripinfo_veh_99" vType="2" speedFactor="1.10" vaporized=""/>
    <tripinfo id="veh_45" depart="52.00" departLane="north_down_0" departPos="4.10" departSpeed="0.00" departDelay="7.00" arrival="116.00" arrivalLane="east_right_1" arrivalPos="91.95" arrivalSpeed="13.24" duration="64.00" routeLength="195.44" waitingTime="34.00" waitingCount="2" stopTime="0.00" timeLoss="50.01" rerouteNo="0" devices="tripinfo_veh_45" vType="2" speedFactor="1.09" vaporized=""/>
    <tripinfo id="veh_67" depart="68.00" departLane="south_up_0" departPos="10.10" departSpeed="0.00" departDelay="13.00" arrival="116.00" arrivalLane="west_left_1" arrivalPos="91.95" arrivalSpeed="12.30" duration="48.00" routeLength="189.44" waitingTime="18.00" waitingCount="2" stopTime="0.00" timeLoss="32.86" rerouteNo="0" devices="tripinfo_veh_67" vType="3" speedFactor="0.91" vaporized=""/>
    <tripinfo id="veh_49" depart="55.00" departLane="north_down_0" departPos="4.10" departSpeed="0.00" departDelay="8.00" arrival="119.00" arrivalLane="east_right_1" arrivalPos="91.95" arrivalSpeed="11.65" duration="64.00" routeLength="195.44" waitingTime="31.00" waitingCount="2" stopTime="0.00" timeLoss="47.04" rerouteNo="0" devices="tripinfo_veh_49" vType="2" speedFactor="0.85" vaporized=""/>
    <tripinfo id="veh_60" depart="60.00" departLane="west_right_0" departPos="4.10" departSpeed="0.00" departDelay="9.00" arrival="119.00" arrivalLane="south_down_0" arrivalPos="91.95" arrivalSpeed="13.25" duration="59.00" routeLength="184.80" waitingTime="29.00" waitingCount="2" stopTime="0.00" timeLoss="45.55" rerouteNo="0" devices="tripinfo_veh_60" vType="2" speedFactor="1.08" vaporized=""/>
    <tripinfo id="veh_38" depart="46.00" departLane="east_left_0" departPos="10.10" departSpeed="0.00" departDelay="3.00" arrival="121.00" arrivalLane="west_left_0" arrivalPos="91.95" arrivalSpeed="13.64" duration="75.00" routeLength="189.90" waitingTime="43.00" waitingCount="2" stopTime="0.00" timeLoss="60.75" rerouteNo="0" devices="tripinfo_veh_38" vType="3" speedFactor="1.10" vaporized=""/>
    <tripinfo id="veh_42" depart="50.00" departLane="east_left_0" departPos="10.10" departSpeed="0.00" departDelay="6.00" arrival="122.00" arrivalLane="north_up_0" arrivalPos="91.95" arrivalSpeed="13.88" duration="72.00" routeLength="178.80" waitingTime="40.00" waitingCount="2" stopTime="0.00" timeLoss="58.61" rerouteNo="0" devices="tripinfo_veh_42" vType="3" speedFactor="1.09" vaporized=""/>
    <tripinfo id="veh_64" depart="73.00" departLane="west_right_0" departPos="10.10" departSpeed="0.00" departDelay="18.00" arrival="122.00" arrivalLane="east_right_0" arrivalPos="91.95" arrivalSpeed="12.56" duration="49.00" routeLength="189.90" waitingTime="23.00" waitingCount="1" stopTime="0.00" timeLoss="34.24" rerouteNo="0" devices="tripinfo_veh_64" vType="3" speedFactor="0.94" vaporized=""/>
    <tripinfo id="veh_54" depart="57.00" departLane="east_left_0" departPos="5.10" departSpeed="0.00" departDelay="9.00" arrival="124.00" arrivalLane="north_up_0" arrivalPos="91.95" arrivalSpeed="13.06" duration="67.00" routeLength="183.80" waitingTime="35.00" waitingCount="2" stopTime="0.00" timeLoss="53.68" rerouteNo="0" devices="tripinfo_veh_54" vType="0" speedFactor="1.00" vaporized=""/>
    <tripinfo id="veh_80" depart="83.00" departLane="west_right_0" departPos="3.10" departSpeed="0.00" departDelay="18.00" arrival="125.00" arrivalLane="east_right_0" arrivalPos="91.95" arrivalSpeed="13.39" duration="42.00" routeLength="196.90" waitingTime="15.00" waitingCount="1" stopTime="0.00" timeLoss="27.08" rerouteNo="0" devices="tripinfo_veh_80" vType="1" speedFactor="1.03" vaporized=""/>
    <tripinfo id="veh_62" depart="74.00" departLane="east_left_0" departPos="5.10" departSpeed="0.00" departDelay="23.00" arrival="126.00" arrivalLane="north_up_0" arrivalPos="91.95" arrivalSpeed="13.97" duration="52.00" routeLength="183.80" waitingTime="24.00" waitingCount="1" stopTime="0.00" timeLoss="38.69" rerouteNo="0" devices="tripinfo_veh_62" vType="0" speedFactor="1.02" vaporized=""/>
    <tripinfo id="veh_50" depart="54.00" departLane="east_left_0" departPos="5.10" departSpeed="0.00" departDelay="7.00" arrival="129.00" arrivalLane="south_down_1" arrivalPos="91.95" arrivalSpeed="11.45" duration="75.00" routeLength="194.44" waitingTime="38.00" waitingCount="3" stopTime="0.00" timeLoss="58.58" rerouteNo="0" devices="tripinfo_veh_50" vType="0" speedFactor="0.85" vaporized=""/>
    <tripinfo id="veh_70" depart="81.00" departLane="east_left_0" departPos="10.10" departSpeed="0.00" departDelay="25.00" arrival="129.00" arrivalLane="west_left_0" arrivalPos="91.95" arrivalSpeed="13.17" duration="48.00" routeLength="189.90" waitingTime="22.00" waitingCount="1" stopTime="0.00" timeLoss="34.00" rerouteNo="0" devices="tripinfo_veh_70" vType="3" speedFactor="1.02" vaporized=""/>